REMARK  10 active torsions:
REMARK  status: ('A' for Active; 'I' for Inactive)
REMARK    1  A    between atoms: C_12  and  C_9 
REMARK    2  A    between atoms: C_10  and  O_11 
REMARK    3  A    between atoms: O_11  and  C_27 
REMARK    4  A    between atoms: C_12  and  N_13 
REMARK    5  A    between atoms: C_12  and  C_14 
REMARK    6  A    between atoms: N_13  and  C_15 
REMARK    7  A    between atoms: C_18  and  C_34 
REMARK    8  A    between atoms: C_27  and  C_29 
REMARK    9  A    between atoms: C_32  and  O_33 
REMARK   10  A    between atoms: O_33  and  C_34 
ROOT
ATOM      1  N   UNL d   1       5.039   4.221   0.229  0.00  0.00    -0.241 NA
ATOM      2  C   UNL d   1       6.224   4.191  -0.418  0.00  0.00     0.099 A 
ATOM      3  C   UNL d   1       6.331   4.291  -1.803  0.00  0.00     0.021 A 
ATOM      4  C   UNL d   1       5.167   4.429  -2.551  0.00  0.00     0.004 A 
ATOM      5  C   UNL d   1       3.935   4.461  -1.897  0.00  0.00     0.031 A 
ATOM      6  C   UNL d   1       3.899   4.354  -0.495  0.00  0.00     0.116 A 
ATOM      7  C   UNL d   1       2.752   4.600  -2.627  0.00  0.00     0.059 A 
ATOM      8  C   UNL d   1       1.527   4.631  -1.969  0.00  0.00     0.012 A 
ATOM      9  C   UNL d   1       1.471   4.523  -0.581  0.00  0.00     0.039 A 
ATOM     10  C   UNL d   1       2.655   4.386   0.149  0.00  0.00     0.164 A 
ATOM     11 CL   UNL d   1       2.769   4.738  -4.353  0.00  0.00    -0.082 Cl
ENDROOT
BRANCH  10  12
ATOM     12  O   UNL d   1       2.591   4.285   1.525  0.00  0.00    -0.423 OA
BRANCH  12  13
ATOM     13  C   UNL d   1       2.396   3.111   2.160  0.00  0.00     0.322 C 
ATOM     14  O   UNL d   1       2.250   2.042   1.601  0.00  0.00    -0.250 OA
BRANCH  13  15
ATOM     15  C   UNL d   1       2.356   3.275   3.660  0.00  0.00     0.110 C 
ATOM     16  C   UNL d   1       0.972   3.757   4.121  0.00  0.00     0.012 C 
ENDBRANCH  13  15
ENDBRANCH  12  13
ENDBRANCH  10  12
BRANCH   9  17
ATOM     17  C   UNL d   1       0.131   4.557   0.131  0.00  0.00     0.143 C 
BRANCH  17  18
ATOM     18  N   UNL d   1      -0.860   3.643  -0.445  0.00  0.00    -0.197 NA
BRANCH  18  19
ATOM     19  C   UNL d   1      -1.344   2.579   0.271  0.00  0.00     0.237 A 
ATOM     20  N   UNL d   1      -2.101   1.705  -0.430  0.00  0.00    -0.211 NA
ATOM     21  C   UNL d   1      -2.587   0.646   0.255  0.00  0.00     0.103 A 
ATOM     22  C   UNL d   1      -2.324   0.464   1.611  0.00  0.00     0.041 A 
ATOM     23  C   UNL d   1      -1.539   1.422   2.252  0.00  0.00     0.103 A 
ATOM     24  N   UNL d   1      -1.042   2.491   1.591  0.00  0.00    -0.211 NA
ENDBRANCH  18  19
ENDBRANCH  17  18
BRANCH  17  25
ATOM     25  C   UNL d   1      -0.409   5.953   0.367  0.00  0.00     0.002 A 
ATOM     26  C   UNL d   1      -0.474   6.453   1.666  0.00  0.00    -0.002 A 
ATOM     27  C   UNL d   1      -0.963   7.737   1.898  0.00  0.00     0.006 A 
ATOM     28  C   UNL d   1      -1.393   8.533   0.835  0.00  0.00     0.076 A 
ATOM     29  C   UNL d   1      -1.326   8.027  -0.466  0.00  0.00     0.006 A 
ATOM     30  C   UNL d   1      -0.837   6.744  -0.699  0.00  0.00    -0.002 A 
BRANCH  28  31
ATOM     31  C   UNL d   1      -1.917   9.911   1.093  0.00  0.00     0.341 C 
ATOM     32  O   UNL d   1      -1.985  10.374   2.217  0.00  0.00    -0.245 OA
BRANCH  31  33
ATOM     33  O   UNL d   1      -2.302  10.590  -0.011  0.00  0.00    -0.445 OA
BRANCH  33  34
ATOM     34  C   UNL d   1      -2.820  11.928   0.152  0.00  0.00     0.209 C 
ATOM     35  C   UNL d   1      -3.185  12.479  -1.233  0.00  0.00     0.051 C 
ENDBRANCH  33  34
ENDBRANCH  31  33
ENDBRANCH  28  31
ENDBRANCH  17  25
ENDBRANCH   9  17
TORSDOF 10
