MODEL 1
REMARK VINA RESULT:      -5.9      0.000      0.000
REMARK  10 active torsions:
REMARK  status: ('A' for Active; 'I' for Inactive)
REMARK    1  A    between atoms: C_12  and  C_9 
REMARK    2  A    between atoms: C_10  and  O_11 
REMARK    3  A    between atoms: O_11  and  C_27 
REMARK    4  A    between atoms: C_12  and  N_13 
REMARK    5  A    between atoms: C_12  and  C_14 
REMARK    6  A    between atoms: N_13  and  C_15 
REMARK    7  A    between atoms: C_18  and  C_34 
REMARK    8  A    between atoms: C_27  and  C_29 
REMARK    9  A    between atoms: C_32  and  O_33 
REMARK   10  A    between atoms: O_33  and  C_34 
ROOT
ATOM      1  N   UNL d   1      57.367  12.717   1.187  0.00  0.00    -0.241 NA
ATOM      2  C   UNL d   1      56.608  11.816   0.526  0.00  0.00     0.099 A 
ATOM      3  C   UNL d   1      56.397  10.520   0.992  0.00  0.00     0.021 A 
ATOM      4  C   UNL d   1      56.993  10.140   2.189  0.00  0.00     0.004 A 
ATOM      5  C   UNL d   1      57.781  11.059   2.883  0.00  0.00     0.031 A 
ATOM      6  C   UNL d   1      57.953  12.351   2.355  0.00  0.00     0.116 A 
ATOM      7  C   UNL d   1      58.388  10.700   4.088  0.00  0.00     0.059 A 
ATOM      8  C   UNL d   1      59.173  11.621   4.775  0.00  0.00     0.012 A 
ATOM      9  C   UNL d   1      59.357  12.905   4.266  0.00  0.00     0.039 A 
ATOM     10  C   UNL d   1      58.747  13.265   3.061  0.00  0.00     0.164 A 
ATOM     11 CL   UNL d   1      58.189   9.117   4.762  0.00  0.00    -0.082 Cl
ENDROOT
BRANCH  10  12
ATOM     12  O   UNL d   1      58.931  14.541   2.566  0.00  0.00    -0.423 OA
BRANCH  12  13
ATOM     13  C   UNL d   1      58.280  15.614   3.060  0.00  0.00     0.322 C 
ATOM     14  O   UNL d   1      57.284  15.555   3.754  0.00  0.00    -0.250 OA
BRANCH  13  15
ATOM     15  C   UNL d   1      58.918  16.913   2.634  0.00  0.00     0.110 C 
ATOM     16  C   UNL d   1      59.559  16.779   1.244  0.00  0.00     0.012 C 
ENDBRANCH  13  15
ENDBRANCH  12  13
ENDBRANCH  10  12
BRANCH   9  17
ATOM     17  C   UNL d   1      60.215  13.906   5.020  0.00  0.00     0.143 C 
BRANCH  17  18
ATOM     18  N   UNL d   1      61.610  13.935   4.570  0.00  0.00    -0.197 NA
BRANCH  18  19
ATOM     19  C   UNL d   1      62.099  14.990   3.845  0.00  0.00     0.237 A 
ATOM     20  N   UNL d   1      62.572  14.679   2.617  0.00  0.00    -0.211 NA
ATOM     21  C   UNL d   1      63.057  15.704   1.882  0.00  0.00     0.103 A 
ATOM     22  C   UNL d   1      63.072  17.012   2.363  0.00  0.00     0.041 A 
ATOM     23  C   UNL d   1      62.570  17.235   3.645  0.00  0.00     0.103 A 
ATOM     24  N   UNL d   1      62.080  16.227   4.401  0.00  0.00    -0.211 NA
ENDBRANCH  18  19
ENDBRANCH  17  18
BRANCH  17  25
ATOM     25  C   UNL d   1      60.073  13.831   6.526  0.00  0.00     0.002 A 
ATOM     26  C   UNL d   1      61.187  13.527   7.306  0.00  0.00    -0.002 A 
ATOM     27  C   UNL d   1      61.073  13.460   8.693  0.00  0.00     0.006 A 
ATOM     28  C   UNL d   1      59.846  13.695   9.314  0.00  0.00     0.076 A 
ATOM     29  C   UNL d   1      58.731  13.999   8.528  0.00  0.00     0.006 A 
ATOM     30  C   UNL d   1      58.844  14.066   7.142  0.00  0.00    -0.002 A 
BRANCH  28  31
ATOM     31  C   UNL d   1      59.732  13.621  10.805  0.00  0.00     0.341 C 
ATOM     32  O   UNL d   1      59.570  12.563  11.387  0.00  0.00    -0.245 OA
BRANCH  31  33
ATOM     33  O   UNL d   1      59.824  14.809  11.443  0.00  0.00    -0.445 OA
BRANCH  33  34
ATOM     34  C   UNL d   1      60.796  14.946  12.502  0.00  0.00     0.209 C 
ATOM     35  C   UNL d   1      60.621  16.329  13.145  0.00  0.00     0.051 C 
ENDBRANCH  33  34
ENDBRANCH  31  33
ENDBRANCH  28  31
ENDBRANCH  17  25
ENDBRANCH   9  17
TORSDOF 10
ENDMDL
MODEL 2
REMARK VINA RESULT:      -5.4     21.885     25.595
REMARK  10 active torsions:
REMARK  status: ('A' for Active; 'I' for Inactive)
REMARK    1  A    between atoms: C_12  and  C_9 
REMARK    2  A    between atoms: C_10  and  O_11 
REMARK    3  A    between atoms: O_11  and  C_27 
REMARK    4  A    between atoms: C_12  and  N_13 
REMARK    5  A    between atoms: C_12  and  C_14 
REMARK    6  A    between atoms: N_13  and  C_15 
REMARK    7  A    between atoms: C_18  and  C_34 
REMARK    8  A    between atoms: C_27  and  C_29 
REMARK    9  A    between atoms: C_32  and  O_33 
REMARK   10  A    between atoms: O_33  and  C_34 
ROOT
ATOM      1  N   UNL d   1      57.341  30.578  21.488  0.00  0.00    -0.241 NA
ATOM      2  C   UNL d   1      56.911  30.008  22.634  0.00  0.00     0.099 A 
ATOM      3  C   UNL d   1      57.226  30.511  23.893  0.00  0.00     0.021 A 
ATOM      4  C   UNL d   1      58.018  31.652  23.973  0.00  0.00     0.004 A 
ATOM      5  C   UNL d   1      58.470  32.253  22.798  0.00  0.00     0.031 A 
ATOM      6  C   UNL d   1      58.115  31.691  21.559  0.00  0.00     0.116 A 
ATOM      7  C   UNL d   1      59.266  33.400  22.854  0.00  0.00     0.059 A 
ATOM      8  C   UNL d   1      59.714  33.994  21.678  0.00  0.00     0.012 A 
ATOM      9  C   UNL d   1      59.375  33.450  20.441  0.00  0.00     0.039 A 
ATOM     10  C   UNL d   1      58.577  32.303  20.387  0.00  0.00     0.164 A 
ATOM     11 CL   UNL d   1      59.714  34.113  24.366  0.00  0.00    -0.082 Cl
ENDROOT
BRANCH  10  12
ATOM     12  O   UNL d   1      58.241  31.774  19.156  0.00  0.00    -0.423 OA
BRANCH  12  13
ATOM     13  C   UNL d   1      58.688  30.573  18.734  0.00  0.00     0.322 C 
ATOM     14  O   UNL d   1      57.977  29.684  18.309  0.00  0.00    -0.250 OA
BRANCH  13  15
ATOM     15  C   UNL d   1      60.186  30.444  18.870  0.00  0.00     0.110 C 
ATOM     16  C   UNL d   1      60.557  29.191  19.677  0.00  0.00     0.012 C 
ENDBRANCH  13  15
ENDBRANCH  12  13
ENDBRANCH  10  12
BRANCH   9  17
ATOM     17  C   UNL d   1      59.867  34.103  19.163  0.00  0.00     0.143 C 
BRANCH  17  18
ATOM     18  N   UNL d   1      61.328  34.182  19.073  0.00  0.00    -0.197 NA
BRANCH  18  19
ATOM     19  C   UNL d   1      62.027  33.411  18.179  0.00  0.00     0.237 A 
ATOM     20  N   UNL d   1      63.238  32.985  18.604  0.00  0.00    -0.211 NA
ATOM     21  C   UNL d   1      63.943  32.222  17.740  0.00  0.00     0.103 A 
ATOM     22  C   UNL d   1      63.451  31.891  16.479  0.00  0.00     0.041 A 
ATOM     23  C   UNL d   1      62.195  32.382  16.126  0.00  0.00     0.103 A 
ATOM     24  N   UNL d   1      61.469  33.149  16.970  0.00  0.00    -0.211 NA
ENDBRANCH  18  19
ENDBRANCH  17  18
BRANCH  17  25
ATOM     25  C   UNL d   1      59.176  35.409  18.829  0.00  0.00     0.002 A 
ATOM     26  C   UNL d   1      57.821  35.405  18.503  0.00  0.00    -0.002 A 
ATOM     27  C   UNL d   1      57.171  36.599  18.199  0.00  0.00     0.006 A 
ATOM     28  C   UNL d   1      57.867  37.808  18.216  0.00  0.00     0.076 A 
ATOM     29  C   UNL d   1      59.226  37.807  18.544  0.00  0.00     0.006 A 
ATOM     30  C   UNL d   1      59.877  36.615  18.848  0.00  0.00    -0.002 A 
BRANCH  28  31
ATOM     31  C   UNL d   1      57.161  39.086  17.888  0.00  0.00     0.341 C 
ATOM     32  O   UNL d   1      57.725  40.008  17.326  0.00  0.00    -0.245 OA
BRANCH  31  33
ATOM     33  O   UNL d   1      55.862  39.131  18.262  0.00  0.00    -0.445 OA
BRANCH  33  34
ATOM     34  C   UNL d   1      55.542  39.650  19.571  0.00  0.00     0.209 C 
ATOM     35  C   UNL d   1      55.031  41.088  19.411  0.00  0.00     0.051 C 
ENDBRANCH  33  34
ENDBRANCH  31  33
ENDBRANCH  28  31
ENDBRANCH  17  25
ENDBRANCH   9  17
TORSDOF 10
ENDMDL
MODEL 3
REMARK VINA RESULT:      -5.4     24.264     26.580
REMARK  10 active torsions:
REMARK  status: ('A' for Active; 'I' for Inactive)
REMARK    1  A    between atoms: C_12  and  C_9 
REMARK    2  A    between atoms: C_10  and  O_11 
REMARK    3  A    between atoms: O_11  and  C_27 
REMARK    4  A    between atoms: C_12  and  N_13 
REMARK    5  A    between atoms: C_12  and  C_14 
REMARK    6  A    between atoms: N_13  and  C_15 
REMARK    7  A    between atoms: C_18  and  C_34 
REMARK    8  A    between atoms: C_27  and  C_29 
REMARK    9  A    between atoms: C_32  and  O_33 
REMARK   10  A    between atoms: O_33  and  C_34 
ROOT
ATOM      1  N   UNL d   1      38.355  27.068  11.539  0.00  0.00    -0.241 NA
ATOM      2  C   UNL d   1      38.197  26.232  12.588  0.00  0.00     0.099 A 
ATOM      3  C   UNL d   1      37.528  25.014  12.489  0.00  0.00     0.021 A 
ATOM      4  C   UNL d   1      37.002  24.644  11.256  0.00  0.00     0.004 A 
ATOM      5  C   UNL d   1      37.156  25.498  10.164  0.00  0.00     0.031 A 
ATOM      6  C   UNL d   1      37.842  26.714  10.334  0.00  0.00     0.116 A 
ATOM      7  C   UNL d   1      36.636  25.147   8.915  0.00  0.00     0.059 A 
ATOM      8  C   UNL d   1      36.793  26.003   7.830  0.00  0.00     0.012 A 
ATOM      9  C   UNL d   1      37.467  27.213   7.980  0.00  0.00     0.039 A 
ATOM     10  C   UNL d   1      37.988  27.562   9.229  0.00  0.00     0.164 A 
ATOM     11 CL   UNL d   1      35.791  23.654   8.678  0.00  0.00    -0.082 Cl
ENDROOT
BRANCH  10  12
ATOM     12  O   UNL d   1      38.660  28.762   9.368  0.00  0.00    -0.423 OA
BRANCH  12  13
ATOM     13  C   UNL d   1      38.035  29.911   9.697  0.00  0.00     0.322 C 
ATOM     14  O   UNL d   1      36.937  29.975  10.214  0.00  0.00    -0.250 OA
BRANCH  13  15
ATOM     15  C   UNL d   1      38.850  31.127   9.327  0.00  0.00     0.110 C 
ATOM     16  C   UNL d   1      38.760  31.408   7.819  0.00  0.00     0.012 C 
ENDBRANCH  13  15
ENDBRANCH  12  13
ENDBRANCH  10  12
BRANCH   9  17
ATOM     17  C   UNL d   1      37.634  28.143   6.792  0.00  0.00     0.143 C 
BRANCH  17  18
ATOM     18  N   UNL d   1      36.369  28.489   6.138  0.00  0.00    -0.197 NA
BRANCH  18  19
ATOM     19  C   UNL d   1      35.672  29.615   6.494  0.00  0.00     0.237 A 
ATOM     20  N   UNL d   1      34.862  29.480   7.569  0.00  0.00    -0.211 NA
ATOM     21  C   UNL d   1      34.167  30.579   7.939  0.00  0.00     0.103 A 
ATOM     22  C   UNL d   1      34.277  31.785   7.251  0.00  0.00     0.041 A 
ATOM     23  C   UNL d   1      35.132  31.826   6.150  0.00  0.00     0.103 A 
ATOM     24  N   UNL d   1      35.837  30.742   5.757  0.00  0.00    -0.211 NA
ENDBRANCH  18  19
ENDBRANCH  17  18
BRANCH  17  25
ATOM     25  C   UNL d   1      38.713  27.713   5.818  0.00  0.00     0.002 A 
ATOM     26  C   UNL d   1      40.027  28.129   6.022  0.00  0.00    -0.002 A 
ATOM     27  C   UNL d   1      41.030  27.738   5.137  0.00  0.00     0.006 A 
ATOM     28  C   UNL d   1      40.730  26.929   4.040  0.00  0.00     0.076 A 
ATOM     29  C   UNL d   1      39.410  26.515   3.840  0.00  0.00     0.006 A 
ATOM     30  C   UNL d   1      38.407  26.905   4.723  0.00  0.00    -0.002 A 
BRANCH  28  31
ATOM     31  C   UNL d   1      41.813  26.513   3.095  0.00  0.00     0.341 C 
ATOM     32  O   UNL d   1      41.584  25.831   2.113  0.00  0.00    -0.245 OA
BRANCH  31  33
ATOM     33  O   UNL d   1      43.050  26.954   3.417  0.00  0.00    -0.445 OA
BRANCH  33  34
ATOM     34  C   UNL d   1      44.067  26.956   2.392  0.00  0.00     0.209 C 
ATOM     35  C   UNL d   1      45.114  25.891   2.744  0.00  0.00     0.051 C 
ENDBRANCH  33  34
ENDBRANCH  31  33
ENDBRANCH  28  31
ENDBRANCH  17  25
ENDBRANCH   9  17
TORSDOF 10
ENDMDL
MODEL 4
REMARK VINA RESULT:      -5.4     19.493     22.333
REMARK  10 active torsions:
REMARK  status: ('A' for Active; 'I' for Inactive)
REMARK    1  A    between atoms: C_12  and  C_9 
REMARK    2  A    between atoms: C_10  and  O_11 
REMARK    3  A    between atoms: O_11  and  C_27 
REMARK    4  A    between atoms: C_12  and  N_13 
REMARK    5  A    between atoms: C_12  and  C_14 
REMARK    6  A    between atoms: N_13  and  C_15 
REMARK    7  A    between atoms: C_18  and  C_34 
REMARK    8  A    between atoms: C_27  and  C_29 
REMARK    9  A    between atoms: C_32  and  O_33 
REMARK   10  A    between atoms: O_33  and  C_34 
ROOT
ATOM      1  N   UNL d   1      52.159  36.750   0.872  0.00  0.00    -0.241 NA
ATOM      2  C   UNL d   1      51.098  37.509   1.221  0.00  0.00     0.099 A 
ATOM      3  C   UNL d   1      50.915  38.004   2.509  0.00  0.00     0.021 A 
ATOM      4  C   UNL d   1      51.866  37.704   3.478  0.00  0.00     0.004 A 
ATOM      5  C   UNL d   1      52.967  36.920   3.133  0.00  0.00     0.031 A 
ATOM      6  C   UNL d   1      53.091  36.452   1.813  0.00  0.00     0.116 A 
ATOM      7  C   UNL d   1      53.937  36.606   4.089  0.00  0.00     0.059 A 
ATOM      8  C   UNL d   1      55.032  35.823   3.739  0.00  0.00     0.012 A 
ATOM      9  C   UNL d   1      55.170  35.348   2.437  0.00  0.00     0.039 A 
ATOM     10  C   UNL d   1      54.201  35.664   1.480  0.00  0.00     0.164 A 
ATOM     11 CL   UNL d   1      53.811  37.173   5.720  0.00  0.00    -0.082 Cl
ENDROOT
BRANCH  10  12
ATOM     12  O   UNL d   1      54.347  35.193   0.190  0.00  0.00    -0.423 OA
BRANCH  12  13
ATOM     13  C   UNL d   1      55.114  35.815  -0.729  0.00  0.00     0.322 C 
ATOM     14  O   UNL d   1      55.333  37.010  -0.747  0.00  0.00    -0.250 OA
BRANCH  13  15
ATOM     15  C   UNL d   1      55.658  34.857  -1.759  0.00  0.00     0.110 C 
ATOM     16  C   UNL d   1      57.184  34.728  -1.635  0.00  0.00     0.012 C 
ENDBRANCH  13  15
ENDBRANCH  12  13
ENDBRANCH  10  12
BRANCH   9  17
ATOM     17  C   UNL d   1      56.367  34.494   2.061  0.00  0.00     0.143 C 
BRANCH  17  18
ATOM     18  N   UNL d   1      56.091  33.054   2.091  0.00  0.00    -0.197 NA
BRANCH  18  19
ATOM     19  C   UNL d   1      56.158  32.296   0.951  0.00  0.00     0.237 A 
ATOM     20  N   UNL d   1      54.966  31.969   0.402  0.00  0.00    -0.211 NA
ATOM     21  C   UNL d   1      55.007  31.223  -0.724  0.00  0.00     0.103 A 
ATOM     22  C   UNL d   1      56.212  30.811  -1.290  0.00  0.00     0.041 A 
ATOM     23  C   UNL d   1      57.391  31.191  -0.648  0.00  0.00     0.103 A 
ATOM     24  N   UNL d   1      57.378  31.935   0.480  0.00  0.00    -0.211 NA
ENDBRANCH  18  19
ENDBRANCH  17  18
BRANCH  17  25
ATOM     25  C   UNL d   1      57.647  34.872   2.780  0.00  0.00     0.002 A 
ATOM     26  C   UNL d   1      58.238  33.962   3.653  0.00  0.00    -0.002 A 
ATOM     27  C   UNL d   1      59.417  34.293   4.317  0.00  0.00     0.006 A 
ATOM     28  C   UNL d   1      60.016  35.538   4.115  0.00  0.00     0.076 A 
ATOM     29  C   UNL d   1      59.419  36.448   3.238  0.00  0.00     0.006 A 
ATOM     30  C   UNL d   1      58.241  36.117   2.574  0.00  0.00    -0.002 A 
BRANCH  28  31
ATOM     31  C   UNL d   1      61.283  35.886   4.832  0.00  0.00     0.341 C 
ATOM     32  O   UNL d   1      62.333  35.315   4.600  0.00  0.00    -0.245 OA
BRANCH  31  33
ATOM     33  O   UNL d   1      61.167  36.876   5.746  0.00  0.00    -0.445 OA
BRANCH  33  34
ATOM     34  C   UNL d   1      60.175  36.737   6.786  0.00  0.00     0.209 C 
ATOM     35  C   UNL d   1      60.585  35.571   7.695  0.00  0.00     0.051 C 
ENDBRANCH  33  34
ENDBRANCH  31  33
ENDBRANCH  28  31
ENDBRANCH  17  25
ENDBRANCH   9  17
TORSDOF 10
ENDMDL
MODEL 5
REMARK VINA RESULT:      -5.3     21.888     24.781
REMARK  10 active torsions:
REMARK  status: ('A' for Active; 'I' for Inactive)
REMARK    1  A    between atoms: C_12  and  C_9 
REMARK    2  A    between atoms: C_10  and  O_11 
REMARK    3  A    between atoms: O_11  and  C_27 
REMARK    4  A    between atoms: C_12  and  N_13 
REMARK    5  A    between atoms: C_12  and  C_14 
REMARK    6  A    between atoms: N_13  and  C_15 
REMARK    7  A    between atoms: C_18  and  C_34 
REMARK    8  A    between atoms: C_27  and  C_29 
REMARK    9  A    between atoms: C_32  and  O_33 
REMARK   10  A    between atoms: O_33  and  C_34 
ROOT
ATOM      1  N   UNL d   1      57.472  30.320  21.340  0.00  0.00    -0.241 NA
ATOM      2  C   UNL d   1      57.079  29.613  22.422  0.00  0.00     0.099 A 
ATOM      3  C   UNL d   1      57.311  30.039  23.728  0.00  0.00     0.021 A 
ATOM      4  C   UNL d   1      57.976  31.244  23.925  0.00  0.00     0.004 A 
ATOM      5  C   UNL d   1      58.390  31.985  22.817  0.00  0.00     0.031 A 
ATOM      6  C   UNL d   1      58.123  31.496  21.526  0.00  0.00     0.116 A 
ATOM      7  C   UNL d   1      59.058  33.199  22.990  0.00  0.00     0.059 A 
ATOM      8  C   UNL d   1      59.468  33.933  21.882  0.00  0.00     0.012 A 
ATOM      9  C   UNL d   1      59.216  33.463  20.595  0.00  0.00     0.039 A 
ATOM     10  C   UNL d   1      58.545  32.249  20.422  0.00  0.00     0.164 A 
ATOM     11 CL   UNL d   1      59.395  33.826  24.569  0.00  0.00    -0.082 Cl
ENDROOT
BRANCH  10  12
ATOM     12  O   UNL d   1      58.294  31.793  19.143  0.00  0.00    -0.423 OA
BRANCH  12  13
ATOM     13  C   UNL d   1      58.684  30.574  18.715  0.00  0.00     0.322 C 
ATOM     14  O   UNL d   1      57.937  29.736  18.252  0.00  0.00    -0.250 OA
BRANCH  13  15
ATOM     15  C   UNL d   1      60.166  30.354  18.899  0.00  0.00     0.110 C 
ATOM     16  C   UNL d   1      60.437  29.026  19.621  0.00  0.00     0.012 C 
ENDBRANCH  13  15
ENDBRANCH  12  13
ENDBRANCH  10  12
BRANCH   9  17
ATOM     17  C   UNL d   1      59.666  34.268  19.389  0.00  0.00     0.143 C 
BRANCH  17  18
ATOM     18  N   UNL d   1      58.562  34.682  18.518  0.00  0.00    -0.197 NA
BRANCH  18  19
ATOM     19  C   UNL d   1      58.206  36.001  18.403  0.00  0.00     0.237 A 
ATOM     20  N   UNL d   1      56.882  36.232  18.254  0.00  0.00    -0.211 NA
ATOM     21  C   UNL d   1      56.506  37.526  18.142  0.00  0.00     0.103 A 
ATOM     22  C   UNL d   1      57.433  38.566  18.177  0.00  0.00     0.041 A 
ATOM     23  C   UNL d   1      58.778  38.230  18.327  0.00  0.00     0.103 A 
ATOM     24  N   UNL d   1      59.180  36.945  18.440  0.00  0.00    -0.211 NA
ENDBRANCH  18  19
ENDBRANCH  17  18
BRANCH  17  25
ATOM     25  C   UNL d   1      60.827  33.653  18.633  0.00  0.00     0.002 A 
ATOM     26  C   UNL d   1      60.685  33.362  17.278  0.00  0.00    -0.002 A 
ATOM     27  C   UNL d   1      61.745  32.801  16.568  0.00  0.00     0.006 A 
ATOM     28  C   UNL d   1      62.956  32.526  17.205  0.00  0.00     0.076 A 
ATOM     29  C   UNL d   1      63.093  32.820  18.565  0.00  0.00     0.006 A 
ATOM     30  C   UNL d   1      62.034  33.380  19.275  0.00  0.00    -0.002 A 
BRANCH  28  31
ATOM     31  C   UNL d   1      64.090  31.924  16.435  0.00  0.00     0.341 C 
ATOM     32  O   UNL d   1      64.155  30.728  16.214  0.00  0.00    -0.245 OA
BRANCH  31  33
ATOM     33  O   UNL d   1      65.022  32.806  16.011  0.00  0.00    -0.445 OA
BRANCH  33  34
ATOM     34  C   UNL d   1      65.670  32.563  14.744  0.00  0.00     0.209 C 
ATOM     35  C   UNL d   1      65.227  33.650  13.755  0.00  0.00     0.051 C 
ENDBRANCH  33  34
ENDBRANCH  31  33
ENDBRANCH  28  31
ENDBRANCH  17  25
ENDBRANCH   9  17
TORSDOF 10
ENDMDL
MODEL 6
REMARK VINA RESULT:      -5.1      5.764      9.319
REMARK  10 active torsions:
REMARK  status: ('A' for Active; 'I' for Inactive)
REMARK    1  A    between atoms: C_12  and  C_9 
REMARK    2  A    between atoms: C_10  and  O_11 
REMARK    3  A    between atoms: O_11  and  C_27 
REMARK    4  A    between atoms: C_12  and  N_13 
REMARK    5  A    between atoms: C_12  and  C_14 
REMARK    6  A    between atoms: N_13  and  C_15 
REMARK    7  A    between atoms: C_18  and  C_34 
REMARK    8  A    between atoms: C_27  and  C_29 
REMARK    9  A    between atoms: C_32  and  O_33 
REMARK   10  A    between atoms: O_33  and  C_34 
ROOT
ATOM      1  N   UNL d   1      58.797  12.435  13.529  0.00  0.00    -0.241 NA
ATOM      2  C   UNL d   1      58.408  11.470  14.390  0.00  0.00     0.099 A 
ATOM      3  C   UNL d   1      59.184  11.070  15.476  0.00  0.00     0.021 A 
ATOM      4  C   UNL d   1      60.410  11.692  15.682  0.00  0.00     0.004 A 
ATOM      5  C   UNL d   1      60.825  12.691  14.801  0.00  0.00     0.031 A 
ATOM      6  C   UNL d   1      59.993  13.046  13.724  0.00  0.00     0.116 A 
ATOM      7  C   UNL d   1      62.053  13.331  14.988  0.00  0.00     0.059 A 
ATOM      8  C   UNL d   1      62.461  14.326  14.106  0.00  0.00     0.012 A 
ATOM      9  C   UNL d   1      61.651  14.689  13.031  0.00  0.00     0.039 A 
ATOM     10  C   UNL d   1      60.423  14.049  12.846  0.00  0.00     0.164 A 
ATOM     11 CL   UNL d   1      63.094  12.916  16.308  0.00  0.00    -0.082 Cl
ENDROOT
BRANCH  10  12
ATOM     12  O   UNL d   1      59.624  14.419  11.781  0.00  0.00    -0.423 OA
BRANCH  12  13
ATOM     13  C   UNL d   1      59.708  13.830  10.570  0.00  0.00     0.322 C 
ATOM     14  O   UNL d   1      59.912  12.646  10.393  0.00  0.00    -0.250 OA
BRANCH  13  15
ATOM     15  C   UNL d   1      59.539  14.820   9.443  0.00  0.00     0.110 C 
ATOM     16  C   UNL d   1      58.370  14.417   8.531  0.00  0.00     0.012 C 
ENDBRANCH  13  15
ENDBRANCH  12  13
ENDBRANCH  10  12
BRANCH   9  17
ATOM     17  C   UNL d   1      62.103  15.775  12.072  0.00  0.00     0.143 C 
BRANCH  17  18
ATOM     18  N   UNL d   1      63.283  15.405  11.285  0.00  0.00    -0.197 NA
BRANCH  18  19
ATOM     19  C   UNL d   1      63.161  14.918  10.009  0.00  0.00     0.237 A 
ATOM     20  N   UNL d   1      63.173  13.571   9.899  0.00  0.00    -0.211 NA
ATOM     21  C   UNL d   1      63.051  13.068   8.650  0.00  0.00     0.103 A 
ATOM     22  C   UNL d   1      62.921  13.893   7.535  0.00  0.00     0.041 A 
ATOM     23  C   UNL d   1      62.926  15.271   7.746  0.00  0.00     0.103 A 
ATOM     24  N   UNL d   1      63.048  15.800   8.984  0.00  0.00    -0.211 NA
ENDBRANCH  18  19
ENDBRANCH  17  18
BRANCH  17  25
ATOM     25  C   UNL d   1      62.210  17.150  12.699  0.00  0.00     0.002 A 
ATOM     26  C   UNL d   1      61.515  17.423  13.876  0.00  0.00    -0.002 A 
ATOM     27  C   UNL d   1      61.608  18.681  14.468  0.00  0.00     0.006 A 
ATOM     28  C   UNL d   1      62.394  19.679  13.889  0.00  0.00     0.076 A 
ATOM     29  C   UNL d   1      63.088  19.400  12.708  0.00  0.00     0.006 A 
ATOM     30  C   UNL d   1      62.996  18.143  12.116  0.00  0.00    -0.002 A 
BRANCH  28  31
ATOM     31  C   UNL d   1      62.488  21.027  14.531  0.00  0.00     0.341 C 
ATOM     32  O   UNL d   1      62.180  21.209  15.695  0.00  0.00    -0.245 OA
BRANCH  31  33
ATOM     33  O   UNL d   1      62.938  22.013  13.722  0.00  0.00    -0.445 OA
BRANCH  33  34
ATOM     34  C   UNL d   1      64.054  22.812  14.169  0.00  0.00     0.209 C 
ATOM     35  C   UNL d   1      65.331  22.274  13.509  0.00  0.00     0.051 C 
ENDBRANCH  33  34
ENDBRANCH  31  33
ENDBRANCH  28  31
ENDBRANCH  17  25
ENDBRANCH   9  17
TORSDOF 10
ENDMDL
MODEL 7
REMARK VINA RESULT:      -5.1     19.093     22.402
REMARK  10 active torsions:
REMARK  status: ('A' for Active; 'I' for Inactive)
REMARK    1  A    between atoms: C_12  and  C_9 
REMARK    2  A    between atoms: C_10  and  O_11 
REMARK    3  A    between atoms: O_11  and  C_27 
REMARK    4  A    between atoms: C_12  and  N_13 
REMARK    5  A    between atoms: C_12  and  C_14 
REMARK    6  A    between atoms: N_13  and  C_15 
REMARK    7  A    between atoms: C_18  and  C_34 
REMARK    8  A    between atoms: C_27  and  C_29 
REMARK    9  A    between atoms: C_32  and  O_33 
REMARK   10  A    between atoms: O_33  and  C_34 
ROOT
ATOM      1  N   UNL d   1      63.493  34.669   2.946  0.00  0.00    -0.241 NA
ATOM      2  C   UNL d   1      64.629  34.064   3.354  0.00  0.00     0.099 A 
ATOM      3  C   UNL d   1      64.686  33.246   4.480  0.00  0.00     0.021 A 
ATOM      4  C   UNL d   1      63.523  33.044   5.214  0.00  0.00     0.004 A 
ATOM      5  C   UNL d   1      62.341  33.663   4.805  0.00  0.00     0.031 A 
ATOM      6  C   UNL d   1      62.354  34.477   3.659  0.00  0.00     0.116 A 
ATOM      7  C   UNL d   1      61.160  33.474   5.526  0.00  0.00     0.059 A 
ATOM      8  C   UNL d   1      59.985  34.095   5.114  0.00  0.00     0.012 A 
ATOM      9  C   UNL d   1      59.979  34.907   3.982  0.00  0.00     0.039 A 
ATOM     10  C   UNL d   1      61.161  35.095   3.260  0.00  0.00     0.164 A 
ATOM     11 CL   UNL d   1      61.116  32.474   6.939  0.00  0.00    -0.082 Cl
ENDROOT
BRANCH  10  12
ATOM     12  O   UNL d   1      61.145  35.898   2.136  0.00  0.00    -0.423 OA
BRANCH  12  13
ATOM     13  C   UNL d   1      61.263  37.240   2.200  0.00  0.00     0.322 C 
ATOM     14  O   UNL d   1      61.594  37.855   3.194  0.00  0.00    -0.250 OA
BRANCH  13  15
ATOM     15  C   UNL d   1      60.913  37.904   0.890  0.00  0.00     0.110 C 
ATOM     16  C   UNL d   1      59.415  37.758   0.586  0.00  0.00     0.012 C 
ENDBRANCH  13  15
ENDBRANCH  12  13
ENDBRANCH  10  12
BRANCH   9  17
ATOM     17  C   UNL d   1      58.694  35.582   3.538  0.00  0.00     0.143 C 
BRANCH  17  18
ATOM     18  N   UNL d   1      58.005  36.296   4.617  0.00  0.00    -0.197 NA
BRANCH  18  19
ATOM     19  C   UNL d   1      57.378  37.493   4.388  0.00  0.00     0.237 A 
ATOM     20  N   UNL d   1      56.047  37.504   4.624  0.00  0.00    -0.211 NA
ATOM     21  C   UNL d   1      55.408  38.676   4.408  0.00  0.00     0.103 A 
ATOM     22  C   UNL d   1      56.083  39.811   3.964  0.00  0.00     0.041 A 
ATOM     23  C   UNL d   1      57.455  39.702   3.741  0.00  0.00     0.103 A 
ATOM     24  N   UNL d   1      58.118  38.542   3.948  0.00  0.00    -0.211 NA
ENDBRANCH  18  19
ENDBRANCH  17  18
BRANCH  17  25
ATOM     25  C   UNL d   1      57.775  34.690   2.729  0.00  0.00     0.002 A 
ATOM     26  C   UNL d   1      56.743  34.006   3.370  0.00  0.00    -0.002 A 
ATOM     27  C   UNL d   1      55.886  33.186   2.639  0.00  0.00     0.006 A 
ATOM     28  C   UNL d   1      56.052  33.040   1.260  0.00  0.00     0.076 A 
ATOM     29  C   UNL d   1      57.088  33.728   0.622  0.00  0.00     0.006 A 
ATOM     30  C   UNL d   1      57.945  34.548   1.352  0.00  0.00    -0.002 A 
BRANCH  28  31
ATOM     31  C   UNL d   1      55.127  32.157   0.482  0.00  0.00     0.341 C 
ATOM     32  O   UNL d   1      54.167  31.616   0.999  0.00  0.00    -0.245 OA
BRANCH  31  33
ATOM     33  O   UNL d   1      55.442  32.014  -0.825  0.00  0.00    -0.445 OA
BRANCH  33  34
ATOM     34  C   UNL d   1      55.781  30.697  -1.309  0.00  0.00     0.209 C 
ATOM     35  C   UNL d   1      57.282  30.668  -1.627  0.00  0.00     0.051 C 
ENDBRANCH  33  34
ENDBRANCH  31  33
ENDBRANCH  28  31
ENDBRANCH  17  25
ENDBRANCH   9  17
TORSDOF 10
ENDMDL
MODEL 8
REMARK VINA RESULT:      -5.1     18.464     21.275
REMARK  10 active torsions:
REMARK  status: ('A' for Active; 'I' for Inactive)
REMARK    1  A    between atoms: C_12  and  C_9 
REMARK    2  A    between atoms: C_10  and  O_11 
REMARK    3  A    between atoms: O_11  and  C_27 
REMARK    4  A    between atoms: C_12  and  N_13 
REMARK    5  A    between atoms: C_12  and  C_14 
REMARK    6  A    between atoms: N_13  and  C_15 
REMARK    7  A    between atoms: C_18  and  C_34 
REMARK    8  A    between atoms: C_27  and  C_29 
REMARK    9  A    between atoms: C_32  and  O_33 
REMARK   10  A    between atoms: O_33  and  C_34 
ROOT
ATOM      1  N   UNL d   1      56.094  34.087   2.421  0.00  0.00    -0.241 NA
ATOM      2  C   UNL d   1      55.250  33.404   1.618  0.00  0.00     0.099 A 
ATOM      3  C   UNL d   1      55.690  32.517   0.639  0.00  0.00     0.021 A 
ATOM      4  C   UNL d   1      57.059  32.326   0.483  0.00  0.00     0.004 A 
ATOM      5  C   UNL d   1      57.944  33.025   1.305  0.00  0.00     0.031 A 
ATOM      6  C   UNL d   1      57.431  33.906   2.274  0.00  0.00     0.116 A 
ATOM      7  C   UNL d   1      59.323  32.848   1.168  0.00  0.00     0.059 A 
ATOM      8  C   UNL d   1      60.200  33.548   1.991  0.00  0.00     0.012 A 
ATOM      9  C   UNL d   1      59.710  34.428   2.954  0.00  0.00     0.039 A 
ATOM     10  C   UNL d   1      58.330  34.603   3.091  0.00  0.00     0.164 A 
ATOM     11 CL   UNL d   1      59.980  31.766  -0.013  0.00  0.00    -0.082 Cl
ENDROOT
BRANCH  10  12
ATOM     12  O   UNL d   1      57.853  35.473   4.052  0.00  0.00    -0.423 OA
BRANCH  12  13
ATOM     13  C   UNL d   1      57.470  36.734   3.765  0.00  0.00     0.322 C 
ATOM     14  O   UNL d   1      57.836  37.359   2.790  0.00  0.00    -0.250 OA
BRANCH  13  15
ATOM     15  C   UNL d   1      56.544  37.300   4.814  0.00  0.00     0.110 C 
ATOM     16  C   UNL d   1      55.137  36.695   4.685  0.00  0.00     0.012 C 
ENDBRANCH  13  15
ENDBRANCH  12  13
ENDBRANCH  10  12
BRANCH   9  17
ATOM     17  C   UNL d   1      60.672  35.189   3.847  0.00  0.00     0.143 C 
BRANCH  17  18
ATOM     18  N   UNL d   1      61.147  36.445   3.259  0.00  0.00    -0.197 NA
BRANCH  18  19
ATOM     19  C   UNL d   1      61.243  37.588   4.010  0.00  0.00     0.237 A 
ATOM     20  N   UNL d   1      60.879  37.462   5.306  0.00  0.00    -0.211 NA
ATOM     21  C   UNL d   1      60.968  38.576   6.066  0.00  0.00     0.103 A 
ATOM     22  C   UNL d   1      61.410  39.790   5.544  0.00  0.00     0.041 A 
ATOM     23  C   UNL d   1      61.757  39.825   4.194  0.00  0.00     0.103 A 
ATOM     24  N   UNL d   1      61.676  38.726   3.411  0.00  0.00    -0.211 NA
ENDBRANCH  18  19
ENDBRANCH  17  18
BRANCH  17  25
ATOM     25  C   UNL d   1      61.787  34.339   4.422  0.00  0.00     0.002 A 
ATOM     26  C   UNL d   1      61.571  33.630   5.602  0.00  0.00    -0.002 A 
ATOM     27  C   UNL d   1      62.585  32.839   6.139  0.00  0.00     0.006 A 
ATOM     28  C   UNL d   1      63.825  32.751   5.503  0.00  0.00     0.076 A 
ATOM     29  C   UNL d   1      64.037  33.463   4.320  0.00  0.00     0.006 A 
ATOM     30  C   UNL d   1      63.024  34.253   3.782  0.00  0.00    -0.002 A 
BRANCH  28  31
ATOM     31  C   UNL d   1      64.909  31.899   6.087  0.00  0.00     0.341 C 
ATOM     32  O   UNL d   1      65.840  32.378   6.708  0.00  0.00    -0.245 OA
BRANCH  31  33
ATOM     33  O   UNL d   1      64.769  30.572   5.871  0.00  0.00    -0.445 OA
BRANCH  33  34
ATOM     34  C   UNL d   1      65.628  29.940   4.897  0.00  0.00     0.209 C 
ATOM     35  C   UNL d   1      64.891  29.904   3.552  0.00  0.00     0.051 C 
ENDBRANCH  33  34
ENDBRANCH  31  33
ENDBRANCH  28  31
ENDBRANCH  17  25
ENDBRANCH   9  17
TORSDOF 10
ENDMDL
MODEL 9
REMARK VINA RESULT:      -5.1     18.051     20.949
REMARK  10 active torsions:
REMARK  status: ('A' for Active; 'I' for Inactive)
REMARK    1  A    between atoms: C_12  and  C_9 
REMARK    2  A    between atoms: C_10  and  O_11 
REMARK    3  A    between atoms: O_11  and  C_27 
REMARK    4  A    between atoms: C_12  and  N_13 
REMARK    5  A    between atoms: C_12  and  C_14 
REMARK    6  A    between atoms: N_13  and  C_15 
REMARK    7  A    between atoms: C_18  and  C_34 
REMARK    8  A    between atoms: C_27  and  C_29 
REMARK    9  A    between atoms: C_32  and  O_33 
REMARK   10  A    between atoms: O_33  and  C_34 
ROOT
ATOM      1  N   UNL d   1      62.026  35.114   2.750  0.00  0.00    -0.241 NA
ATOM      2  C   UNL d   1      60.759  35.309   2.327  0.00  0.00     0.099 A 
ATOM      3  C   UNL d   1      59.649  34.840   3.025  0.00  0.00     0.021 A 
ATOM      4  C   UNL d   1      59.855  34.141   4.209  0.00  0.00     0.004 A 
ATOM      5  C   UNL d   1      61.159  33.931   4.659  0.00  0.00     0.031 A 
ATOM      6  C   UNL d   1      62.235  34.432   3.905  0.00  0.00     0.116 A 
ATOM      7  C   UNL d   1      61.392  33.233   5.847  0.00  0.00     0.059 A 
ATOM      8  C   UNL d   1      62.694  33.027   6.290  0.00  0.00     0.012 A 
ATOM      9  C   UNL d   1      63.773  33.512   5.555  0.00  0.00     0.039 A 
ATOM     10  C   UNL d   1      63.539  34.212   4.367  0.00  0.00     0.164 A 
ATOM     11 CL   UNL d   1      60.085  32.610   6.797  0.00  0.00    -0.082 Cl
ENDROOT
BRANCH  10  12
ATOM     12  O   UNL d   1      64.614  34.695   3.647  0.00  0.00    -0.423 OA
BRANCH  12  13
ATOM     13  C   UNL d   1      65.250  33.962   2.709  0.00  0.00     0.322 C 
ATOM     14  O   UNL d   1      64.773  32.993   2.154  0.00  0.00    -0.250 OA
BRANCH  13  15
ATOM     15  C   UNL d   1      66.645  34.472   2.438  0.00  0.00     0.110 C 
ATOM     16  C   UNL d   1      67.298  34.991   3.728  0.00  0.00     0.012 C 
ENDBRANCH  13  15
ENDBRANCH  12  13
ENDBRANCH  10  12
BRANCH   9  17
ATOM     17  C   UNL d   1      65.191  33.283   6.043  0.00  0.00     0.143 C 
BRANCH  17  18
ATOM     18  N   UNL d   1      65.568  31.868   6.102  0.00  0.00    -0.197 NA
BRANCH  18  19
ATOM     19  C   UNL d   1      65.935  31.184   4.972  0.00  0.00     0.237 A 
ATOM     20  N   UNL d   1      67.191  31.427   4.531  0.00  0.00    -0.211 NA
ATOM     21  C   UNL d   1      67.576  30.761   3.419  0.00  0.00     0.103 A 
ATOM     22  C   UNL d   1      66.727  29.875   2.761  0.00  0.00     0.041 A 
ATOM     23  C   UNL d   1      65.447  29.694   3.286  0.00  0.00     0.103 A 
ATOM     24  N   UNL d   1      65.036  30.348   4.395  0.00  0.00    -0.211 NA
ENDBRANCH  18  19
ENDBRANCH  17  18
BRANCH  17  25
ATOM     25  C   UNL d   1      65.542  34.048   7.303  0.00  0.00     0.002 A 
ATOM     26  C   UNL d   1      66.790  33.861   7.894  0.00  0.00    -0.002 A 
ATOM     27  C   UNL d   1      67.130  34.561   9.050  0.00  0.00     0.006 A 
ATOM     28  C   UNL d   1      66.225  35.454   9.627  0.00  0.00     0.076 A 
ATOM     29  C   UNL d   1      64.975  35.638   9.031  0.00  0.00     0.006 A 
ATOM     30  C   UNL d   1      64.635  34.939   7.876  0.00  0.00    -0.002 A 
BRANCH  28  31
ATOM     31  C   UNL d   1      66.598  36.202  10.869  0.00  0.00     0.341 C 
ATOM     32  O   UNL d   1      67.550  35.879  11.555  0.00  0.00    -0.245 OA
BRANCH  31  33
ATOM     33  O   UNL d   1      65.800  37.254  11.161  0.00  0.00    -0.445 OA
BRANCH  33  34
ATOM     34  C   UNL d   1      65.111  37.262  12.430  0.00  0.00     0.209 C 
ATOM     35  C   UNL d   1      64.119  36.092  12.451  0.00  0.00     0.051 C 
ENDBRANCH  33  34
ENDBRANCH  31  33
ENDBRANCH  28  31
ENDBRANCH  17  25
ENDBRANCH   9  17
TORSDOF 10
ENDMDL
