REMARK  4 active torsions:
REMARK  status: ('A' for Active; 'I' for Inactive)
REMARK    1  A    between atoms: C_12  and  C_9 
REMARK    2  A    between atoms: C_12  and  N_13 
REMARK    3  A    between atoms: C_12  and  C_14 
REMARK    4  A    between atoms: N_13  and  C_15 
ROOT
ATOM      1  N   UNL d   1      -0.702  -6.558   1.219  0.00  0.00    -0.241 NA
ATOM      2  C   UNL d   1      -1.459  -7.666   1.382  0.00  0.00     0.099 A 
ATOM      3  C   UNL d   1      -2.650  -7.877   0.692  0.00  0.00     0.021 A 
ATOM      4  C   UNL d   1      -3.081  -6.905  -0.204  0.00  0.00     0.003 A 
ATOM      5  C   UNL d   1      -2.308  -5.759  -0.379  0.00  0.00     0.021 A 
ATOM      6  C   UNL d   1      -1.114  -5.603   0.346  0.00  0.00     0.120 A 
ATOM      7  C   UNL d   1      -2.733  -4.782  -1.274  0.00  0.00     0.001 A 
ATOM      8  C   UNL d   1      -1.973  -3.634  -1.459  0.00  0.00     0.001 A 
ATOM      9  C   UNL d   1      -0.783  -3.456  -0.755  0.00  0.00     0.042 A 
ATOM     10  C   UNL d   1      -0.357  -4.437   0.147  0.00  0.00     0.211 A 
ATOM     11  O   UNL d   1       0.808  -4.251   0.840  0.00  0.00    -0.285 OA
ENDROOT
BRANCH   9  12
ATOM     12  C   UNL d   1       0.034  -2.192  -0.971  0.00  0.00     0.142 C 
BRANCH  12  13
ATOM     13  N   UNL d   1      -0.643  -0.993  -0.467  0.00  0.00    -0.213 NA
BRANCH  13  14
ATOM     14  C   UNL d   1       0.037  -0.025   0.228  0.00  0.00     0.148 A 
ATOM     15  N   UNL d   1       1.380  -0.147   0.374  0.00  0.00    -0.228 NA
ATOM     16  C   UNL d   1       2.033   0.819   1.059  0.00  0.00     0.100 A 
ATOM     17  C   UNL d   1       1.386   1.924   1.611  0.00  0.00     0.021 A 
ATOM     18  C   UNL d   1       0.008   2.045   1.453  0.00  0.00     0.004 A 
ATOM     19  C   UNL d   1      -0.675   1.055   0.750  0.00  0.00     0.036 A 
ENDBRANCH  13  14
ENDBRANCH  12  13
BRANCH  12  20
ATOM     20  C   UNL d   1       0.557  -2.026  -2.390  0.00  0.00     0.013 A 
ATOM     21  C   UNL d   1      -0.304  -1.589  -3.398  0.00  0.00    -0.001 A 
ATOM     22  C   UNL d   1       0.156  -1.424  -4.702  0.00  0.00     0.001 A 
ATOM     23  C   UNL d   1       1.487  -1.695  -5.006  0.00  0.00     0.012 A 
ATOM     24  C   UNL d   1       2.357  -2.130  -4.008  0.00  0.00     0.068 A 
ATOM     25  C   UNL d   1       1.896  -2.297  -2.697  0.00  0.00     0.066 A 
ATOM     26 CL   UNL d   1       4.004  -2.454  -4.433  0.00  0.00    -0.081 Cl
ATOM     27 CL   UNL d   1       2.982  -2.838  -1.457  0.00  0.00    -0.082 Cl
ENDBRANCH  12  20
ENDBRANCH   9  12
TORSDOF 4
