MODEL 1
REMARK VINA RESULT:      -5.7      0.000      0.000
REMARK  4 active torsions:
REMARK  status: ('A' for Active; 'I' for Inactive)
REMARK    1  A    between atoms: C_12  and  C_9 
REMARK    2  A    between atoms: C_12  and  N_13 
REMARK    3  A    between atoms: C_12  and  C_14 
REMARK    4  A    between atoms: N_13  and  C_15 
ROOT
ATOM      1  N   UNL d   1      52.534  37.174   2.155  0.00  0.00    -0.241 NA
ATOM      2  C   UNL d   1      51.290  37.550   2.526  0.00  0.00     0.099 A 
ATOM      3  C   UNL d   1      50.930  37.772   3.853  0.00  0.00     0.021 A 
ATOM      4  C   UNL d   1      51.893  37.598   4.841  0.00  0.00     0.003 A 
ATOM      5  C   UNL d   1      53.178  37.209   4.469  0.00  0.00     0.021 A 
ATOM      6  C   UNL d   1      53.481  37.001   3.113  0.00  0.00     0.120 A 
ATOM      7  C   UNL d   1      54.147  37.033   5.453  0.00  0.00     0.001 A 
ATOM      8  C   UNL d   1      55.433  36.646   5.097  0.00  0.00     0.001 A 
ATOM      9  C   UNL d   1      55.761  36.437   3.758  0.00  0.00     0.042 A 
ATOM     10  C   UNL d   1      54.786  36.611   2.770  0.00  0.00     0.211 A 
ATOM     11  O   UNL d   1      55.114  36.396   1.459  0.00  0.00    -0.285 OA
ENDROOT
BRANCH   9  12
ATOM     12  C   UNL d   1      57.174  36.013   3.390  0.00  0.00     0.142 C 
BRANCH  12  13
ATOM     13  N   UNL d   1      57.380  34.567   3.527  0.00  0.00    -0.213 NA
BRANCH  13  14
ATOM     14  C   UNL d   1      57.049  33.698   2.518  0.00  0.00     0.148 A 
ATOM     15  N   UNL d   1      57.911  33.541   1.482  0.00  0.00    -0.228 NA
ATOM     16  C   UNL d   1      57.570  32.677   0.500  0.00  0.00     0.100 A 
ATOM     17  C   UNL d   1      56.381  31.948   0.513  0.00  0.00     0.021 A 
ATOM     18  C   UNL d   1      55.504  32.111   1.581  0.00  0.00     0.004 A 
ATOM     19  C   UNL d   1      55.845  32.999   2.599  0.00  0.00     0.036 A 
ENDBRANCH  13  14
ENDBRANCH  12  13
BRANCH  12  20
ATOM     20  C   UNL d   1      58.263  36.834   4.063  0.00  0.00     0.013 A 
ATOM     21  C   UNL d   1      59.014  36.272   5.097  0.00  0.00    -0.001 A 
ATOM     22  C   UNL d   1      60.021  37.004   5.722  0.00  0.00     0.001 A 
ATOM     23  C   UNL d   1      60.284  38.308   5.312  0.00  0.00     0.012 A 
ATOM     24  C   UNL d   1      59.543  38.879   4.280  0.00  0.00     0.068 A 
ATOM     25  C   UNL d   1      58.530  38.145   3.651  0.00  0.00     0.066 A 
ATOM     26 CL   UNL d   1      59.907  40.504   3.804  0.00  0.00    -0.081 Cl
ATOM     27 CL   UNL d   1      57.610  38.860   2.366  0.00  0.00    -0.082 Cl
ENDBRANCH  12  20
ENDBRANCH   9  12
TORSDOF 4
ENDMDL
MODEL 2
REMARK VINA RESULT:      -5.6      3.662      7.852
REMARK  4 active torsions:
REMARK  status: ('A' for Active; 'I' for Inactive)
REMARK    1  A    between atoms: C_12  and  C_9 
REMARK    2  A    between atoms: C_12  and  N_13 
REMARK    3  A    between atoms: C_12  and  C_14 
REMARK    4  A    between atoms: N_13  and  C_15 
ROOT
ATOM      1  N   UNL d   1      63.582  34.777   4.594  0.00  0.00    -0.241 NA
ATOM      2  C   UNL d   1      64.581  34.175   5.278  0.00  0.00     0.099 A 
ATOM      3  C   UNL d   1      64.356  33.189   6.235  0.00  0.00     0.021 A 
ATOM      4  C   UNL d   1      63.045  32.806   6.501  0.00  0.00     0.003 A 
ATOM      5  C   UNL d   1      62.009  33.421   5.801  0.00  0.00     0.021 A 
ATOM      6  C   UNL d   1      62.299  34.410   4.846  0.00  0.00     0.120 A 
ATOM      7  C   UNL d   1      60.695  33.043   6.061  0.00  0.00     0.001 A 
ATOM      8  C   UNL d   1      59.651  33.647   5.372  0.00  0.00     0.001 A 
ATOM      9  C   UNL d   1      59.912  34.628   4.417  0.00  0.00     0.042 A 
ATOM     10  C   UNL d   1      61.232  35.010   4.157  0.00  0.00     0.211 A 
ATOM     11  O   UNL d   1      61.479  35.979   3.224  0.00  0.00    -0.285 OA
ENDROOT
BRANCH   9  12
ATOM     12  C   UNL d   1      58.755  35.277   3.674  0.00  0.00     0.142 C 
BRANCH  12  13
ATOM     13  N   UNL d   1      58.004  36.215   4.515  0.00  0.00    -0.213 NA
BRANCH  13  14
ATOM     14  C   UNL d   1      57.866  37.536   4.169  0.00  0.00     0.148 A 
ATOM     15  N   UNL d   1      58.941  38.196   3.671  0.00  0.00    -0.228 NA
ATOM     16  C   UNL d   1      58.785  39.496   3.332  0.00  0.00     0.100 A 
ATOM     17  C   UNL d   1      57.574  40.174   3.471  0.00  0.00     0.021 A 
ATOM     18  C   UNL d   1      56.474  39.488   3.979  0.00  0.00     0.004 A 
ATOM     19  C   UNL d   1      56.624  38.149   4.332  0.00  0.00     0.036 A 
ENDBRANCH  13  14
ENDBRANCH  12  13
BRANCH  12  20
ATOM     20  C   UNL d   1      57.860  34.293   2.937  0.00  0.00     0.013 A 
ATOM     21  C   UNL d   1      56.641  33.910   3.500  0.00  0.00    -0.001 A 
ATOM     22  C   UNL d   1      55.804  33.015   2.839  0.00  0.00     0.001 A 
ATOM     23  C   UNL d   1      56.182  32.497   1.604  0.00  0.00     0.012 A 
ATOM     24  C   UNL d   1      57.395  32.873   1.030  0.00  0.00     0.068 A 
ATOM     25  C   UNL d   1      58.238  33.772   1.694  0.00  0.00     0.066 A 
ATOM     26 CL   UNL d   1      57.823  32.203  -0.509  0.00  0.00    -0.081 Cl
ATOM     27 CL   UNL d   1      59.747  34.238   0.976  0.00  0.00    -0.082 Cl
ENDBRANCH  12  20
ENDBRANCH   9  12
TORSDOF 4
ENDMDL
MODEL 3
REMARK VINA RESULT:      -5.4     21.254     23.375
REMARK  4 active torsions:
REMARK  status: ('A' for Active; 'I' for Inactive)
REMARK    1  A    between atoms: C_12  and  C_9 
REMARK    2  A    between atoms: C_12  and  N_13 
REMARK    3  A    between atoms: C_12  and  C_14 
REMARK    4  A    between atoms: N_13  and  C_15 
ROOT
ATOM      1  N   UNL d   1      63.664  20.172  12.605  0.00  0.00    -0.241 NA
ATOM      2  C   UNL d   1      63.927  21.256  13.368  0.00  0.00     0.099 A 
ATOM      3  C   UNL d   1      63.425  21.414  14.657  0.00  0.00     0.021 A 
ATOM      4  C   UNL d   1      62.614  20.414  15.183  0.00  0.00     0.003 A 
ATOM      5  C   UNL d   1      62.336  19.293  14.404  0.00  0.00     0.021 A 
ATOM      6  C   UNL d   1      62.874  19.189  13.109  0.00  0.00     0.120 A 
ATOM      7  C   UNL d   1      61.526  18.288  14.923  0.00  0.00     0.001 A 
ATOM      8  C   UNL d   1      61.240  17.164  14.159  0.00  0.00     0.001 A 
ATOM      9  C   UNL d   1      61.763  17.035  12.873  0.00  0.00     0.042 A 
ATOM     10  C   UNL d   1      62.575  18.046  12.350  0.00  0.00     0.211 A 
ATOM     11  O   UNL d   1      63.078  17.915  11.084  0.00  0.00    -0.285 OA
ENDROOT
BRANCH   9  12
ATOM     12  C   UNL d   1      61.437  15.797  12.052  0.00  0.00     0.142 C 
BRANCH  12  13
ATOM     13  N   UNL d   1      60.315  16.013  11.133  0.00  0.00    -0.213 NA
BRANCH  13  14
ATOM     14  C   UNL d   1      60.100  15.186  10.059  0.00  0.00     0.148 A 
ATOM     15  N   UNL d   1      58.826  14.838   9.747  0.00  0.00    -0.228 NA
ATOM     16  C   UNL d   1      58.634  14.026   8.683  0.00  0.00     0.100 A 
ATOM     17  C   UNL d   1      59.682  13.542   7.902  0.00  0.00     0.021 A 
ATOM     18  C   UNL d   1      60.987  13.907   8.225  0.00  0.00     0.004 A 
ATOM     19  C   UNL d   1      61.196  14.743   9.320  0.00  0.00     0.036 A 
ENDBRANCH  13  14
ENDBRANCH  12  13
BRANCH  12  20
ATOM     20  C   UNL d   1      61.293  14.526  12.876  0.00  0.00     0.013 A 
ATOM     21  C   UNL d   1      60.034  14.141  13.340  0.00  0.00    -0.001 A 
ATOM     22  C   UNL d   1      59.880  12.978  14.089  0.00  0.00     0.001 A 
ATOM     23  C   UNL d   1      60.989  12.188  14.379  0.00  0.00     0.012 A 
ATOM     24  C   UNL d   1      62.251  12.561  13.920  0.00  0.00     0.068 A 
ATOM     25  C   UNL d   1      62.408  13.730  13.167  0.00  0.00     0.066 A 
ATOM     26 CL   UNL d   1      63.601  11.548  14.304  0.00  0.00    -0.081 Cl
ATOM     27 CL   UNL d   1      63.980  14.191  12.596  0.00  0.00    -0.082 Cl
ENDBRANCH  12  20
ENDBRANCH   9  12
TORSDOF 4
ENDMDL
MODEL 4
REMARK VINA RESULT:      -5.4      3.484      6.933
REMARK  4 active torsions:
REMARK  status: ('A' for Active; 'I' for Inactive)
REMARK    1  A    between atoms: C_12  and  C_9 
REMARK    2  A    between atoms: C_12  and  N_13 
REMARK    3  A    between atoms: C_12  and  C_14 
REMARK    4  A    between atoms: N_13  and  C_15 
ROOT
ATOM      1  N   UNL d   1      63.712  34.659   4.334  0.00  0.00    -0.241 NA
ATOM      2  C   UNL d   1      64.742  34.421   5.175  0.00  0.00     0.099 A 
ATOM      3  C   UNL d   1      64.584  33.787   6.405  0.00  0.00     0.021 A 
ATOM      4  C   UNL d   1      63.309  33.383   6.786  0.00  0.00     0.003 A 
ATOM      5  C   UNL d   1      62.240  33.625   5.926  0.00  0.00     0.021 A 
ATOM      6  C   UNL d   1      62.463  34.268   4.696  0.00  0.00     0.120 A 
ATOM      7  C   UNL d   1      60.962  33.223   6.300  0.00  0.00     0.001 A 
ATOM      8  C   UNL d   1      59.886  33.457   5.453  0.00  0.00     0.001 A 
ATOM      9  C   UNL d   1      60.080  34.090   4.226  0.00  0.00     0.042 A 
ATOM     10  C   UNL d   1      61.365  34.497   3.851  0.00  0.00     0.211 A 
ATOM     11  O   UNL d   1      61.546  35.125   2.649  0.00  0.00    -0.285 OA
ENDROOT
BRANCH   9  12
ATOM     12  C   UNL d   1      58.890  34.338   3.314  0.00  0.00     0.142 C 
BRANCH  12  13
ATOM     13  N   UNL d   1      59.265  34.366   1.896  0.00  0.00    -0.213 NA
BRANCH  13  14
ATOM     14  C   UNL d   1      59.024  33.297   1.071  0.00  0.00     0.148 A 
ATOM     15  N   UNL d   1      57.742  32.999   0.744  0.00  0.00    -0.228 NA
ATOM     16  C   UNL d   1      57.526  31.944  -0.074  0.00  0.00     0.100 A 
ATOM     17  C   UNL d   1      58.559  31.162  -0.590  0.00  0.00     0.021 A 
ATOM     18  C   UNL d   1      59.873  31.477  -0.254  0.00  0.00     0.004 A 
ATOM     19  C   UNL d   1      60.107  32.561   0.589  0.00  0.00     0.036 A 
ENDBRANCH  13  14
ENDBRANCH  12  13
BRANCH  12  20
ATOM     20  C   UNL d   1      58.030  35.525   3.723  0.00  0.00     0.013 A 
ATOM     21  C   UNL d   1      58.638  36.735   4.063  0.00  0.00    -0.001 A 
ATOM     22  C   UNL d   1      57.870  37.835   4.434  0.00  0.00     0.001 A 
ATOM     23  C   UNL d   1      56.482  37.731   4.466  0.00  0.00     0.012 A 
ATOM     24  C   UNL d   1      55.863  36.530   4.128  0.00  0.00     0.068 A 
ATOM     25  C   UNL d   1      56.634  35.422   3.755  0.00  0.00     0.066 A 
ATOM     26 CL   UNL d   1      54.134  36.448   4.181  0.00  0.00    -0.081 Cl
ATOM     27 CL   UNL d   1      55.860  33.928   3.333  0.00  0.00    -0.082 Cl
ENDBRANCH  12  20
ENDBRANCH   9  12
TORSDOF 4
ENDMDL
MODEL 5
REMARK VINA RESULT:      -5.3     21.994     23.959
REMARK  4 active torsions:
REMARK  status: ('A' for Active; 'I' for Inactive)
REMARK    1  A    between atoms: C_12  and  C_9 
REMARK    2  A    between atoms: C_12  and  N_13 
REMARK    3  A    between atoms: C_12  and  C_14 
REMARK    4  A    between atoms: N_13  and  C_15 
ROOT
ATOM      1  N   UNL d   1      38.004  19.164   3.075  0.00  0.00    -0.241 NA
ATOM      2  C   UNL d   1      37.243  19.925   3.893  0.00  0.00     0.099 A 
ATOM      3  C   UNL d   1      37.714  20.445   5.096  0.00  0.00     0.021 A 
ATOM      4  C   UNL d   1      39.023  20.171   5.473  0.00  0.00     0.003 A 
ATOM      5  C   UNL d   1      39.816  19.387   4.636  0.00  0.00     0.021 A 
ATOM      6  C   UNL d   1      39.284  18.890   3.434  0.00  0.00     0.120 A 
ATOM      7  C   UNL d   1      41.127  19.108   5.007  0.00  0.00     0.001 A 
ATOM      8  C   UNL d   1      41.929  18.328   4.183  0.00  0.00     0.001 A 
ATOM      9  C   UNL d   1      41.428  17.825   2.983  0.00  0.00     0.042 A 
ATOM     10  C   UNL d   1      40.108  18.104   2.612  0.00  0.00     0.211 A 
ATOM     11  O   UNL d   1      39.621  17.600   1.437  0.00  0.00    -0.285 OA
ENDROOT
BRANCH   9  12
ATOM     12  C   UNL d   1      42.321  16.973   2.096  0.00  0.00     0.142 C 
BRANCH  12  13
ATOM     13  N   UNL d   1      43.368  16.280   2.854  0.00  0.00    -0.213 NA
BRANCH  13  14
ATOM     14  C   UNL d   1      43.871  15.072   2.441  0.00  0.00     0.148 A 
ATOM     15  N   UNL d   1      45.210  14.866   2.505  0.00  0.00    -0.228 NA
ATOM     16  C   UNL d   1      45.687  13.668   2.096  0.00  0.00     0.100 A 
ATOM     17  C   UNL d   1      44.863  12.648   1.621  0.00  0.00     0.021 A 
ATOM     18  C   UNL d   1      43.489  12.865   1.563  0.00  0.00     0.004 A 
ATOM     19  C   UNL d   1      42.987  14.096   1.980  0.00  0.00     0.036 A 
ENDBRANCH  13  14
ENDBRANCH  12  13
BRANCH  12  20
ATOM     20  C   UNL d   1      42.858  17.701   0.873  0.00  0.00     0.013 A 
ATOM     21  C   UNL d   1      43.672  18.823   1.037  0.00  0.00    -0.001 A 
ATOM     22  C   UNL d   1      44.179  19.500  -0.069  0.00  0.00     0.001 A 
ATOM     23  C   UNL d   1      43.874  19.056  -1.352  0.00  0.00     0.012 A 
ATOM     24  C   UNL d   1      43.063  17.936  -1.530  0.00  0.00     0.068 A 
ATOM     25  C   UNL d   1      42.552  17.255  -0.419  0.00  0.00     0.066 A 
ATOM     26 CL   UNL d   1      42.711  17.420  -3.144  0.00  0.00    -0.081 Cl
ATOM     27 CL   UNL d   1      41.544  15.861  -0.643  0.00  0.00    -0.082 Cl
ENDBRANCH  12  20
ENDBRANCH   9  12
TORSDOF 4
ENDMDL
MODEL 6
REMARK VINA RESULT:      -5.2     15.170     17.341
REMARK  4 active torsions:
REMARK  status: ('A' for Active; 'I' for Inactive)
REMARK    1  A    between atoms: C_12  and  C_9 
REMARK    2  A    between atoms: C_12  and  N_13 
REMARK    3  A    between atoms: C_12  and  C_14 
REMARK    4  A    between atoms: N_13  and  C_15 
ROOT
ATOM      1  N   UNL d   1      63.588  32.855  18.665  0.00  0.00    -0.241 NA
ATOM      2  C   UNL d   1      64.369  32.146  17.819  0.00  0.00     0.099 A 
ATOM      3  C   UNL d   1      63.922  31.684  16.584  0.00  0.00     0.021 A 
ATOM      4  C   UNL d   1      62.614  31.963  16.204  0.00  0.00     0.003 A 
ATOM      5  C   UNL d   1      61.801  32.693  17.069  0.00  0.00     0.021 A 
ATOM      6  C   UNL d   1      62.310  33.133  18.303  0.00  0.00     0.120 A 
ATOM      7  C   UNL d   1      60.491  32.976  16.695  0.00  0.00     0.001 A 
ATOM      8  C   UNL d   1      59.668  33.702  17.547  0.00  0.00     0.001 A 
ATOM      9  C   UNL d   1      60.149  34.153  18.775  0.00  0.00     0.042 A 
ATOM     10  C   UNL d   1      61.465  33.866  19.152  0.00  0.00     0.211 A 
ATOM     11  O   UNL d   1      61.927  34.305  20.363  0.00  0.00    -0.285 OA
ENDROOT
BRANCH   9  12
ATOM     12  C   UNL d   1      59.233  34.945  19.694  0.00  0.00     0.142 C 
BRANCH  12  13
ATOM     13  N   UNL d   1      58.182  34.115  20.291  0.00  0.00    -0.213 NA
BRANCH  13  14
ATOM     14  C   UNL d   1      58.475  32.926  20.912  0.00  0.00     0.148 A 
ATOM     15  N   UNL d   1      58.031  31.772  20.355  0.00  0.00    -0.228 NA
ATOM     16  C   UNL d   1      58.333  30.611  20.980  0.00  0.00     0.100 A 
ATOM     17  C   UNL d   1      59.077  30.557  22.158  0.00  0.00     0.021 A 
ATOM     18  C   UNL d   1      59.533  31.745  22.721  0.00  0.00     0.004 A 
ATOM     19  C   UNL d   1      59.227  32.947  22.086  0.00  0.00     0.036 A 
ENDBRANCH  13  14
ENDBRANCH  12  13
BRANCH  12  20
ATOM     20  C   UNL d   1      58.696  36.229  19.078  0.00  0.00     0.013 A 
ATOM     21  C   UNL d   1      57.380  36.276  18.613  0.00  0.00    -0.001 A 
ATOM     22  C   UNL d   1      56.867  37.443  18.053  0.00  0.00     0.001 A 
ATOM     23  C   UNL d   1      57.671  38.575  17.955  0.00  0.00     0.012 A 
ATOM     24  C   UNL d   1      58.985  38.541  18.417  0.00  0.00     0.068 A 
ATOM     25  C   UNL d   1      59.502  37.369  18.980  0.00  0.00     0.066 A 
ATOM     26 CL   UNL d   1      59.946  39.974  18.275  0.00  0.00    -0.081 Cl
ATOM     27 CL   UNL d   1      61.139  37.331  19.555  0.00  0.00    -0.082 Cl
ENDBRANCH  12  20
ENDBRANCH   9  12
TORSDOF 4
ENDMDL
MODEL 7
REMARK VINA RESULT:      -5.2      2.109      6.283
REMARK  4 active torsions:
REMARK  status: ('A' for Active; 'I' for Inactive)
REMARK    1  A    between atoms: C_12  and  C_9 
REMARK    2  A    between atoms: C_12  and  N_13 
REMARK    3  A    between atoms: C_12  and  C_14 
REMARK    4  A    between atoms: N_13  and  C_15 
ROOT
ATOM      1  N   UNL d   1      58.287  34.044  -0.177  0.00  0.00    -0.241 NA
ATOM      2  C   UNL d   1      58.425  32.873  -0.839  0.00  0.00     0.099 A 
ATOM      3  C   UNL d   1      57.772  31.705  -0.455  0.00  0.00     0.021 A 
ATOM      4  C   UNL d   1      56.942  31.743   0.660  0.00  0.00     0.003 A 
ATOM      5  C   UNL d   1      56.793  32.944   1.350  0.00  0.00     0.021 A 
ATOM      6  C   UNL d   1      57.478  34.091   0.913  0.00  0.00     0.120 A 
ATOM      7  C   UNL d   1      55.964  32.990   2.467  0.00  0.00     0.001 A 
ATOM      8  C   UNL d   1      55.807  34.180   3.164  0.00  0.00     0.001 A 
ATOM      9  C   UNL d   1      56.472  35.333   2.750  0.00  0.00     0.042 A 
ATOM     10  C   UNL d   1      57.307  35.287   1.629  0.00  0.00     0.211 A 
ATOM     11  O   UNL d   1      57.963  36.421   1.233  0.00  0.00    -0.285 OA
ENDROOT
BRANCH   9  12
ATOM     12  C   UNL d   1      56.286  36.626   3.528  0.00  0.00     0.142 C 
BRANCH  12  13
ATOM     13  N   UNL d   1      57.147  36.697   4.713  0.00  0.00    -0.213 NA
BRANCH  13  14
ATOM     14  C   UNL d   1      58.298  37.444   4.719  0.00  0.00     0.148 A 
ATOM     15  N   UNL d   1      58.358  38.559   3.949  0.00  0.00    -0.228 NA
ATOM     16  C   UNL d   1      59.499  39.284   3.971  0.00  0.00     0.100 A 
ATOM     17  C   UNL d   1      60.602  38.934   4.748  0.00  0.00     0.021 A 
ATOM     18  C   UNL d   1      60.532  37.791   5.540  0.00  0.00     0.004 A 
ATOM     19  C   UNL d   1      59.361  37.036   5.524  0.00  0.00     0.036 A 
ENDBRANCH  13  14
ENDBRANCH  12  13
BRANCH  12  20
ATOM     20  C   UNL d   1      54.834  36.967   3.828  0.00  0.00     0.013 A 
ATOM     21  C   UNL d   1      54.338  36.803   5.122  0.00  0.00    -0.001 A 
ATOM     22  C   UNL d   1      53.014  37.116   5.420  0.00  0.00     0.001 A 
ATOM     23  C   UNL d   1      52.175  37.598   4.420  0.00  0.00     0.012 A 
ATOM     24  C   UNL d   1      52.659  37.768   3.124  0.00  0.00     0.068 A 
ATOM     25  C   UNL d   1      53.990  37.454   2.823  0.00  0.00     0.066 A 
ATOM     26 CL   UNL d   1      51.579  38.372   1.912  0.00  0.00    -0.081 Cl
ATOM     27 CL   UNL d   1      54.589  37.668   1.209  0.00  0.00    -0.082 Cl
ENDBRANCH  12  20
ENDBRANCH   9  12
TORSDOF 4
ENDMDL
MODEL 8
REMARK VINA RESULT:      -5.2     20.716     23.930
REMARK  4 active torsions:
REMARK  status: ('A' for Active; 'I' for Inactive)
REMARK    1  A    between atoms: C_12  and  C_9 
REMARK    2  A    between atoms: C_12  and  N_13 
REMARK    3  A    between atoms: C_12  and  C_14 
REMARK    4  A    between atoms: N_13  and  C_15 
ROOT
ATOM      1  N   UNL d   1      42.020  13.409   0.133  0.00  0.00    -0.241 NA
ATOM      2  C   UNL d   1      42.385  12.108   0.152  0.00  0.00     0.099 A 
ATOM      3  C   UNL d   1      43.502  11.646   0.844  0.00  0.00     0.021 A 
ATOM      4  C   UNL d   1      44.277  12.563   1.545  0.00  0.00     0.003 A 
ATOM      5  C   UNL d   1      43.908  13.907   1.531  0.00  0.00     0.021 A 
ATOM      6  C   UNL d   1      42.769  14.313   0.814  0.00  0.00     0.120 A 
ATOM      7  C   UNL d   1      44.679  14.831   2.230  0.00  0.00     0.001 A 
ATOM      8  C   UNL d   1      44.325  16.174   2.225  0.00  0.00     0.001 A 
ATOM      9  C   UNL d   1      43.198  16.602   1.525  0.00  0.00     0.042 A 
ATOM     10  C   UNL d   1      42.424  15.674   0.820  0.00  0.00     0.211 A 
ATOM     11  O   UNL d   1      41.324  16.104   0.129  0.00  0.00    -0.285 OA
ENDROOT
BRANCH   9  12
ATOM     12  C   UNL d   1      42.827  18.077   1.531  0.00  0.00     0.142 C 
BRANCH  12  13
ATOM     13  N   UNL d   1      44.004  18.952   1.496  0.00  0.00    -0.213 NA
BRANCH  13  14
ATOM     14  C   UNL d   1      44.155  19.909   0.525  0.00  0.00     0.148 A 
ATOM     15  N   UNL d   1      44.156  21.215   0.889  0.00  0.00    -0.228 NA
ATOM     16  C   UNL d   1      44.311  22.144  -0.081  0.00  0.00     0.100 A 
ATOM     17  C   UNL d   1      44.471  21.813  -1.426  0.00  0.00     0.021 A 
ATOM     18  C   UNL d   1      44.474  20.470  -1.793  0.00  0.00     0.004 A 
ATOM     19  C   UNL d   1      44.314  19.505  -0.801  0.00  0.00     0.036 A 
ENDBRANCH  13  14
ENDBRANCH  12  13
BRANCH  12  20
ATOM     20  C   UNL d   1      41.834  18.463   2.617  0.00  0.00     0.013 A 
ATOM     21  C   UNL d   1      41.985  17.951   3.907  0.00  0.00    -0.001 A 
ATOM     22  C   UNL d   1      41.090  18.297   4.917  0.00  0.00     0.001 A 
ATOM     23  C   UNL d   1      40.036  19.162   4.641  0.00  0.00     0.012 A 
ATOM     24  C   UNL d   1      39.875  19.681   3.358  0.00  0.00     0.068 A 
ATOM     25  C   UNL d   1      40.773  19.334   2.341  0.00  0.00     0.066 A 
ATOM     26 CL   UNL d   1      38.549  20.754   3.062  0.00  0.00    -0.081 Cl
ATOM     27 CL   UNL d   1      40.570  19.983   0.745  0.00  0.00    -0.082 Cl
ENDBRANCH  12  20
ENDBRANCH   9  12
TORSDOF 4
ENDMDL
MODEL 9
REMARK VINA RESULT:      -5.1     20.816     22.977
REMARK  4 active torsions:
REMARK  status: ('A' for Active; 'I' for Inactive)
REMARK    1  A    between atoms: C_12  and  C_9 
REMARK    2  A    between atoms: C_12  and  N_13 
REMARK    3  A    between atoms: C_12  and  C_14 
REMARK    4  A    between atoms: N_13  and  C_15 
ROOT
ATOM      1  N   UNL d   1      59.217  15.013  10.088  0.00  0.00    -0.241 NA
ATOM      2  C   UNL d   1      58.811  14.198   9.089  0.00  0.00     0.099 A 
ATOM      3  C   UNL d   1      59.688  13.649   8.157  0.00  0.00     0.021 A 
ATOM      4  C   UNL d   1      61.041  13.953   8.257  0.00  0.00     0.003 A 
ATOM      5  C   UNL d   1      61.470  14.793   9.283  0.00  0.00     0.021 A 
ATOM      6  C   UNL d   1      60.537  15.316  10.194  0.00  0.00     0.120 A 
ATOM      7  C   UNL d   1      62.822  15.102   9.389  0.00  0.00     0.001 A 
ATOM      8  C   UNL d   1      63.264  15.938  10.406  0.00  0.00     0.001 A 
ATOM      9  C   UNL d   1      62.360  16.468  11.326  0.00  0.00     0.042 A 
ATOM     10  C   UNL d   1      61.000  16.159  11.217  0.00  0.00     0.211 A 
ATOM     11  O   UNL d   1      60.118  16.690  12.119  0.00  0.00    -0.285 OA
ENDROOT
BRANCH   9  12
ATOM     12  C   UNL d   1      62.864  17.381  12.431  0.00  0.00     0.142 C 
BRANCH  12  13
ATOM     13  N   UNL d   1      63.143  18.739  11.954  0.00  0.00    -0.213 NA
BRANCH  13  14
ATOM     14  C   UNL d   1      63.166  19.810  12.812  0.00  0.00     0.148 A 
ATOM     15  N   UNL d   1      64.223  20.659  12.770  0.00  0.00    -0.228 NA
ATOM     16  C   UNL d   1      64.225  21.710  13.620  0.00  0.00     0.100 A 
ATOM     17  C   UNL d   1      63.193  21.953  14.525  0.00  0.00     0.021 A 
ATOM     18  C   UNL d   1      62.109  21.081  14.559  0.00  0.00     0.004 A 
ATOM     19  C   UNL d   1      62.096  19.994  13.688  0.00  0.00     0.036 A 
ENDBRANCH  13  14
ENDBRANCH  12  13
BRANCH  12  20
ATOM     20  C   UNL d   1      64.004  16.795  13.250  0.00  0.00     0.013 A 
ATOM     21  C   UNL d   1      65.325  17.042  12.874  0.00  0.00    -0.001 A 
ATOM     22  C   UNL d   1      66.383  16.520  13.613  0.00  0.00     0.001 A 
ATOM     23  C   UNL d   1      66.124  15.745  14.740  0.00  0.00     0.012 A 
ATOM     24  C   UNL d   1      64.810  15.493  15.128  0.00  0.00     0.068 A 
ATOM     25  C   UNL d   1      63.745  16.016  14.385  0.00  0.00     0.066 A 
ATOM     26 CL   UNL d   1      64.536  14.524  16.537  0.00  0.00    -0.081 Cl
ATOM     27 CL   UNL d   1      62.110  15.701  14.870  0.00  0.00    -0.082 Cl
ENDBRANCH  12  20
ENDBRANCH   9  12
TORSDOF 4
ENDMDL
