REMARK  5 active torsions:
REMARK  status: ('A' for Active; 'I' for Inactive)
REMARK    1  A    between atoms: C7_7  and  C5_5 
REMARK    2  A    between atoms: C7_7  and  C8_8 
REMARK    3  A    between atoms: C7_7  and  N1_9 
REMARK    4  A    between atoms: N1_9  and  C17_19 
REMARK    5  A    between atoms: C9_10  and  O1_25 
ROOT
ATOM      1  C1  UNK A          -4.567  -6.485  -0.844  0.00  0.00     0.059 A 
ATOM      2  C2  UNK A          -5.875  -6.035  -1.097  0.00  0.00     0.022 A 
ATOM      3  C3  UNK A          -6.108  -4.685  -1.387  0.00  0.00     0.002 A 
ATOM      4  C4  UNK A          -5.037  -3.778  -1.421  0.00  0.00     0.008 A 
ATOM      5  C5  UNK A          -3.703  -4.181  -1.149  0.00  0.00    -0.003 A 
ATOM      6  C6  UNK A          -3.481  -5.567  -0.860  0.00  0.00     0.065 A 
ATOM      7 Cl1  UNK A          -4.384  -8.147  -0.527  0.00  0.00    -0.083 Cl
ATOM      8 Cl2  UNK A          -1.930  -6.177  -0.515  0.00  0.00    -0.082 Cl
ENDROOT
BRANCH   5   9
ATOM      9  C7  UNK A          -2.607  -3.137  -1.142  0.00  0.00     0.137 C 
BRANCH   9  10
ATOM     10  C8  UNK A          -2.087  -2.802  -2.516  0.00  0.00     0.009 A 
ATOM     11  C9  UNK A          -0.784  -3.184  -2.948  0.00  0.00     0.103 A 
ATOM     12  C10 UNK A          -0.269  -2.733  -4.184  0.00  0.00     0.101 A 
ATOM     13  C11 UNK A          -1.052  -1.903  -5.027  0.00  0.00     0.003 A 
ATOM     14  N2  UNK A           0.992  -3.071  -4.572  0.00  0.00    -0.254 NA
ATOM     15  C12 UNK A          -2.354  -1.550  -4.622  0.00  0.00     0.011 A 
ATOM     16  C16 UNK A          -0.492  -1.448  -6.241  0.00  0.00     0.012 A 
ATOM     17  C13 UNK A          -2.861  -1.998  -3.390  0.00  0.00     0.009 A 
ATOM     18  C15 UNK A           0.815  -1.826  -6.601  0.00  0.00     0.021 A 
ATOM     19  C14 UNK A           1.551  -2.651  -5.734  0.00  0.00     0.112 A 
BRANCH  11  20
ATOM     20  O1  UNK A           0.031  -3.964  -2.190  0.00  0.00    -0.358 OA
ATOM     21  HO1 UNK A          -0.071  -4.882  -2.451  0.00  0.00     0.218 HD
ENDBRANCH  11  20
ENDBRANCH   9  10
BRANCH   9  22
ATOM     22  N1  UNK A          -3.012  -1.970  -0.392  0.00  0.00    -0.318 N 
ATOM     23  H1  UNK A          -3.962  -1.961  -0.049  0.00  0.00     0.149 HD
BRANCH  22  24
ATOM     24  C17 UNK A          -2.244  -0.878  -0.099  0.00  0.00     0.118 A 
ATOM     25  C18 UNK A          -2.621  -0.029   0.964  0.00  0.00     0.047 A 
ATOM     26  C19 UNK A          -1.802   1.071   1.319  0.00  0.00    -0.046 A 
ATOM     27  C20 UNK A          -0.649   1.338   0.548  0.00  0.00     0.023 A 
ATOM     28  C22 UNK A          -2.111   1.930   2.487  0.00  0.00     0.044 C 
ATOM     29  C21 UNK A          -0.326   0.491  -0.525  0.00  0.00     0.113 A 
ATOM     30  N3  UNK A          -1.113  -0.579  -0.796  0.00  0.00    -0.242 NA
ENDBRANCH  22  24
ENDBRANCH   9  22
ENDBRANCH   5   9
TORSDOF 5
