MODEL 1
REMARK VINA RESULT:      -5.9      0.000      0.000
REMARK  5 active torsions:
REMARK  status: ('A' for Active; 'I' for Inactive)
REMARK    1  A    between atoms: C7_7  and  C5_5 
REMARK    2  A    between atoms: C7_7  and  C8_8 
REMARK    3  A    between atoms: C7_7  and  N1_9 
REMARK    4  A    between atoms: N1_9  and  C17_19 
REMARK    5  A    between atoms: C9_10  and  O1_25 
ROOT
ATOM      1  C1  UNK A          54.558  38.766   4.915  0.00  0.00     0.059 A 
ATOM      2  C2  UNK A          53.843  37.668   5.425  0.00  0.00     0.022 A 
ATOM      3  C3  UNK A          54.362  36.373   5.297  0.00  0.00     0.002 A 
ATOM      4  C4  UNK A          55.594  36.170   4.655  0.00  0.00     0.008 A 
ATOM      5  C5  UNK A          56.339  37.245   4.104  0.00  0.00    -0.003 A 
ATOM      6  C6  UNK A          55.797  38.563   4.249  0.00  0.00     0.065 A 
ATOM      7 Cl1  UNK A          53.857  40.300   5.143  0.00  0.00    -0.083 Cl
ATOM      8 Cl2  UNK A          56.592  39.936   3.630  0.00  0.00    -0.082 Cl
ENDROOT
BRANCH   5   9
ATOM      9  C7  UNK A          57.629  36.944   3.370  0.00  0.00     0.137 C 
BRANCH   9  10
ATOM     10  C8  UNK A          58.557  36.036   4.135  0.00  0.00     0.009 A 
ATOM     11  C9  UNK A          59.505  36.536   5.074  0.00  0.00     0.103 A 
ATOM     12  C10 UNK A          60.459  35.679   5.667  0.00  0.00     0.101 A 
ATOM     13  C11 UNK A          60.477  34.296   5.348  0.00  0.00     0.003 A 
ATOM     14  N2  UNK A          61.386  36.172   6.535  0.00  0.00    -0.254 NA
ATOM     15  C12 UNK A          59.521  33.789   4.447  0.00  0.00     0.011 A 
ATOM     16  C16 UNK A          61.464  33.477   5.939  0.00  0.00     0.012 A 
ATOM     17  C13 UNK A          58.576  34.646   3.857  0.00  0.00     0.009 A 
ATOM     18  C15 UNK A          62.400  34.031   6.832  0.00  0.00     0.021 A 
ATOM     19  C14 UNK A          62.341  35.406   7.118  0.00  0.00     0.112 A 
BRANCH  11  20
ATOM     20  O1  UNK A          59.560  37.849   5.419  0.00  0.00    -0.358 OA
ATOM     21  HO1 UNK A          60.316  38.260   4.994  0.00  0.00     0.218 HD
ENDBRANCH  11  20
ENDBRANCH   9  10
BRANCH   9  22
ATOM     22  N1  UNK A          57.362  36.479   2.029  0.00  0.00    -0.318 N 
ATOM     23  H1  UNK A          58.120  36.556   1.365  0.00  0.00     0.149 HD
BRANCH  22  24
ATOM     24  C17 UNK A          56.193  35.946   1.564  0.00  0.00     0.118 A 
ATOM     25  C18 UNK A          56.034  34.543   1.529  0.00  0.00     0.047 A 
ATOM     26  C19 UNK A          54.805  33.978   1.109  0.00  0.00    -0.046 A 
ATOM     27  C20 UNK A          53.777  34.837   0.663  0.00  0.00     0.023 A 
ATOM     28  C22 UNK A          54.565  32.515   1.148  0.00  0.00     0.044 C 
ATOM     29  C21 UNK A          53.985  36.226   0.679  0.00  0.00     0.113 A 
ATOM     30  N3  UNK A          55.160  36.724   1.137  0.00  0.00    -0.242 NA
ENDBRANCH  22  24
ENDBRANCH   9  22
ENDBRANCH   5   9
TORSDOF 5
ENDMDL
MODEL 2
REMARK VINA RESULT:      -5.9     23.010     25.571
REMARK  5 active torsions:
REMARK  status: ('A' for Active; 'I' for Inactive)
REMARK    1  A    between atoms: C7_7  and  C5_5 
REMARK    2  A    between atoms: C7_7  and  C8_8 
REMARK    3  A    between atoms: C7_7  and  N1_9 
REMARK    4  A    between atoms: N1_9  and  C17_19 
REMARK    5  A    between atoms: C9_10  and  O1_25 
ROOT
ATOM      1  C1  UNK A          33.697  23.561  10.617  0.00  0.00     0.059 A 
ATOM      2  C2  UNK A          34.258  22.305  10.323  0.00  0.00     0.022 A 
ATOM      3  C3  UNK A          35.552  21.996  10.758  0.00  0.00     0.002 A 
ATOM      4  C4  UNK A          36.295  22.942  11.483  0.00  0.00     0.008 A 
ATOM      5  C5  UNK A          35.780  24.231  11.783  0.00  0.00    -0.003 A 
ATOM      6  C6  UNK A          34.452  24.528  11.336  0.00  0.00     0.065 A 
ATOM      7 Cl1  UNK A          32.109  23.831  10.067  0.00  0.00    -0.083 Cl
ATOM      8 Cl2  UNK A          33.721  26.037  11.629  0.00  0.00    -0.082 Cl
ENDROOT
BRANCH   5   9
ATOM      9  C7  UNK A          36.660  25.221  12.515  0.00  0.00     0.137 C 
BRANCH   9  10
ATOM     10  C8  UNK A          37.204  26.312  11.628  0.00  0.00     0.009 A 
ATOM     11  C9  UNK A          37.800  27.493  12.157  0.00  0.00     0.103 A 
ATOM     12  C10 UNK A          38.169  28.561  11.309  0.00  0.00     0.101 A 
ATOM     13  C11 UNK A          37.967  28.466   9.908  0.00  0.00     0.003 A 
ATOM     14  N2  UNK A          38.701  29.703  11.827  0.00  0.00    -0.254 NA
ATOM     15  C12 UNK A          37.411  27.287   9.375  0.00  0.00     0.011 A 
ATOM     16  C16 UNK A          38.321  29.566   9.096  0.00  0.00     0.012 A 
ATOM     17  C13 UNK A          37.043  26.229  10.222  0.00  0.00     0.009 A 
ATOM     18  C15 UNK A          38.872  30.724   9.676  0.00  0.00     0.021 A 
ATOM     19  C14 UNK A          39.053  30.770  11.068  0.00  0.00     0.112 A 
BRANCH  11  20
ATOM     20  O1  UNK A          38.011  27.664  13.489  0.00  0.00    -0.358 OA
ATOM     21  HO1 UNK A          37.186  27.909  13.915  0.00  0.00     0.218 HD
ENDBRANCH  11  20
ENDBRANCH   9  10
BRANCH   9  22
ATOM     22  N1  UNK A          35.995  25.730  13.692  0.00  0.00    -0.318 N 
ATOM     23  H1  UNK A          35.796  26.721  13.705  0.00  0.00     0.149 HD
BRANCH  22  24
ATOM     24  C17 UNK A          35.607  25.012  14.788  0.00  0.00     0.118 A 
ATOM     25  C18 UNK A          36.429  24.998  15.935  0.00  0.00     0.047 A 
ATOM     26  C19 UNK A          36.010  24.309  17.100  0.00  0.00    -0.046 A 
ATOM     27  C20 UNK A          34.798  23.585  17.065  0.00  0.00     0.023 A 
ATOM     28  C22 UNK A          36.798  24.348  18.356  0.00  0.00     0.044 C 
ATOM     29  C21 UNK A          34.024  23.594  15.892  0.00  0.00     0.113 A 
ATOM     30  N3  UNK A          34.441  24.309  14.819  0.00  0.00    -0.242 NA
ENDBRANCH  22  24
ENDBRANCH   9  22
ENDBRANCH   5   9
TORSDOF 5
ENDMDL
MODEL 3
REMARK VINA RESULT:      -5.8     21.323     24.739
REMARK  5 active torsions:
REMARK  status: ('A' for Active; 'I' for Inactive)
REMARK    1  A    between atoms: C7_7  and  C5_5 
REMARK    2  A    between atoms: C7_7  and  C8_8 
REMARK    3  A    between atoms: C7_7  and  N1_9 
REMARK    4  A    between atoms: N1_9  and  C17_19 
REMARK    5  A    between atoms: C9_10  and  O1_25 
ROOT
ATOM      1  C1  UNK A          38.779  18.261   3.763  0.00  0.00     0.059 A 
ATOM      2  C2  UNK A          39.426  18.954   4.802  0.00  0.00     0.022 A 
ATOM      3  C3  UNK A          40.823  18.945   4.888  0.00  0.00     0.002 A 
ATOM      4  C4  UNK A          41.581  18.240   3.939  0.00  0.00     0.008 A 
ATOM      5  C5  UNK A          40.973  17.506   2.887  0.00  0.00    -0.003 A 
ATOM      6  C6  UNK A          39.542  17.531   2.810  0.00  0.00     0.065 A 
ATOM      7 Cl1  UNK A          37.080  18.354   3.731  0.00  0.00    -0.083 Cl
ATOM      8 Cl2  UNK A          38.691  16.691   1.599  0.00  0.00    -0.082 Cl
ENDROOT
BRANCH   5   9
ATOM      9  C7  UNK A          41.850  16.718   1.938  0.00  0.00     0.137 C 
BRANCH   9  10
ATOM     10  C8  UNK A          42.248  17.490   0.706  0.00  0.00     0.009 A 
ATOM     11  C9  UNK A          43.357  18.384   0.697  0.00  0.00     0.103 A 
ATOM     12  C10 UNK A          43.619  19.202  -0.425  0.00  0.00     0.101 A 
ATOM     13  C11 UNK A          42.788  19.132  -1.573  0.00  0.00     0.003 A 
ATOM     14  N2  UNK A          44.658  20.082  -0.411  0.00  0.00    -0.254 NA
ATOM     15  C12 UNK A          41.711  18.225  -1.584  0.00  0.00     0.011 A 
ATOM     16  C16 UNK A          43.064  19.986  -2.663  0.00  0.00     0.012 A 
ATOM     17  C13 UNK A          41.452  17.416  -0.464  0.00  0.00     0.009 A 
ATOM     18  C15 UNK A          44.151  20.878  -2.604  0.00  0.00     0.021 A 
ATOM     19  C14 UNK A          44.947  20.910  -1.446  0.00  0.00     0.112 A 
BRANCH  11  20
ATOM     20  O1  UNK A          44.188  18.519   1.764  0.00  0.00    -0.358 OA
ATOM     21  HO1 UNK A          44.332  19.451   1.942  0.00  0.00     0.218 HD
ENDBRANCH  11  20
ENDBRANCH   9  10
BRANCH   9  22
ATOM     22  N1  UNK A          42.979  16.146   2.635  0.00  0.00    -0.318 N 
ATOM     23  H1  UNK A          43.294  16.634   3.461  0.00  0.00     0.149 HD
BRANCH  22  24
ATOM     24  C17 UNK A          43.665  15.015   2.292  0.00  0.00     0.118 A 
ATOM     25  C18 UNK A          42.994  13.974   1.614  0.00  0.00     0.047 A 
ATOM     26  C19 UNK A          43.706  12.823   1.198  0.00  0.00    -0.046 A 
ATOM     27  C20 UNK A          45.072  12.708   1.536  0.00  0.00     0.023 A 
ATOM     28  C22 UNK A          43.061  11.752   0.401  0.00  0.00     0.044 C 
ATOM     29  C21 UNK A          45.697  13.748   2.244  0.00  0.00     0.113 A 
ATOM     30  N3  UNK A          44.987  14.854   2.577  0.00  0.00    -0.242 NA
ENDBRANCH  22  24
ENDBRANCH   9  22
ENDBRANCH   5   9
TORSDOF 5
ENDMDL
MODEL 4
REMARK VINA RESULT:      -5.8     17.687     20.574
REMARK  5 active torsions:
REMARK  status: ('A' for Active; 'I' for Inactive)
REMARK    1  A    between atoms: C7_7  and  C5_5 
REMARK    2  A    between atoms: C7_7  and  C8_8 
REMARK    3  A    between atoms: C7_7  and  N1_9 
REMARK    4  A    between atoms: N1_9  and  C17_19 
REMARK    5  A    between atoms: C9_10  and  O1_25 
ROOT
ATOM      1  C1  UNK A          37.049  31.569   4.589  0.00  0.00     0.059 A 
ATOM      2  C2  UNK A          37.944  32.544   5.066  0.00  0.00     0.022 A 
ATOM      3  C3  UNK A          39.026  32.168   5.872  0.00  0.00     0.002 A 
ATOM      4  C4  UNK A          39.217  30.819   6.208  0.00  0.00     0.008 A 
ATOM      5  C5  UNK A          38.327  29.803   5.770  0.00  0.00    -0.003 A 
ATOM      6  C6  UNK A          37.228  30.203   4.942  0.00  0.00     0.065 A 
ATOM      7 Cl1  UNK A          35.782  32.122   3.598  0.00  0.00    -0.083 Cl
ATOM      8 Cl2  UNK A          36.090  29.083   4.354  0.00  0.00    -0.082 Cl
ENDROOT
BRANCH   5   9
ATOM      9  C7  UNK A          38.560  28.377   6.224  0.00  0.00     0.137 C 
BRANCH   9  10
ATOM     10  C8  UNK A          39.311  27.542   5.219  0.00  0.00     0.009 A 
ATOM     11  C9  UNK A          40.722  27.645   5.050  0.00  0.00     0.103 A 
ATOM     12  C10 UNK A          41.378  26.958   4.004  0.00  0.00     0.101 A 
ATOM     13  C11 UNK A          40.642  26.136   3.113  0.00  0.00     0.003 A 
ATOM     14  N2  UNK A          42.722  27.093   3.826  0.00  0.00    -0.254 NA
ATOM     15  C12 UNK A          39.252  26.002   3.296  0.00  0.00     0.011 A 
ATOM     16  C16 UNK A          41.329  25.489   2.062  0.00  0.00     0.012 A 
ATOM     17  C13 UNK A          38.602  26.690   4.335  0.00  0.00     0.009 A 
ATOM     18  C15 UNK A          42.719  25.656   1.919  0.00  0.00     0.021 A 
ATOM     19  C14 UNK A          43.405  26.479   2.828  0.00  0.00     0.112 A 
BRANCH  11  20
ATOM     20  O1  UNK A          41.493  28.424   5.854  0.00  0.00    -0.358 OA
ATOM     21  HO1 UNK A          41.179  29.330   5.818  0.00  0.00     0.218 HD
ENDBRANCH  11  20
ENDBRANCH   9  10
BRANCH   9  22
ATOM     22  N1  UNK A          39.154  28.346   7.540  0.00  0.00    -0.318 N 
ATOM     23  H1  UNK A          40.084  28.731   7.625  0.00  0.00     0.149 HD
BRANCH  22  24
ATOM     24  C17 UNK A          38.590  27.849   8.682  0.00  0.00     0.118 A 
ATOM     25  C18 UNK A          37.630  26.818   8.590  0.00  0.00     0.047 A 
ATOM     26  C19 UNK A          37.082  26.250   9.766  0.00  0.00    -0.046 A 
ATOM     27  C20 UNK A          37.461  26.782  11.019  0.00  0.00     0.023 A 
ATOM     28  C22 UNK A          36.144  25.103   9.717  0.00  0.00     0.044 C 
ATOM     29  C21 UNK A          38.393  27.832  11.068  0.00  0.00     0.113 A 
ATOM     30  N3  UNK A          38.928  28.310   9.918  0.00  0.00    -0.242 NA
ENDBRANCH  22  24
ENDBRANCH   9  22
ENDBRANCH   5   9
TORSDOF 5
ENDMDL
MODEL 5
REMARK VINA RESULT:      -5.8      2.668      6.595
REMARK  5 active torsions:
REMARK  status: ('A' for Active; 'I' for Inactive)
REMARK    1  A    between atoms: C7_7  and  C5_5 
REMARK    2  A    between atoms: C7_7  and  C8_8 
REMARK    3  A    between atoms: C7_7  and  N1_9 
REMARK    4  A    between atoms: N1_9  and  C17_19 
REMARK    5  A    between atoms: C9_10  and  O1_25 
ROOT
ATOM      1  C1  UNK A          55.486  33.327  -0.674  0.00  0.00     0.059 A 
ATOM      2  C2  UNK A          54.964  32.148  -0.113  0.00  0.00     0.022 A 
ATOM      3  C3  UNK A          55.126  31.892   1.254  0.00  0.00     0.002 A 
ATOM      4  C4  UNK A          55.813  32.809   2.066  0.00  0.00     0.008 A 
ATOM      5  C5  UNK A          56.378  34.000   1.539  0.00  0.00    -0.003 A 
ATOM      6  C6  UNK A          56.198  34.251   0.140  0.00  0.00     0.065 A 
ATOM      7 Cl1  UNK A          55.216  33.560  -2.338  0.00  0.00    -0.083 Cl
ATOM      8 Cl2  UNK A          56.828  35.641  -0.614  0.00  0.00    -0.082 Cl
ENDROOT
BRANCH   5   9
ATOM      9  C7  UNK A          57.159  34.912   2.461  0.00  0.00     0.137 C 
BRANCH   9  10
ATOM     10  C8  UNK A          56.318  35.989   3.096  0.00  0.00     0.009 A 
ATOM     11  C9  UNK A          56.561  37.375   2.869  0.00  0.00     0.103 A 
ATOM     12  C10 UNK A          55.852  38.363   3.588  0.00  0.00     0.101 A 
ATOM     13  C11 UNK A          54.869  37.989   4.541  0.00  0.00     0.003 A 
ATOM     14  N2  UNK A          56.118  39.684   3.393  0.00  0.00    -0.254 NA
ATOM     15  C12 UNK A          54.599  36.622   4.745  0.00  0.00     0.011 A 
ATOM     16  C16 UNK A          54.202  39.004   5.262  0.00  0.00     0.012 A 
ATOM     17  C13 UNK A          55.309  35.642   4.030  0.00  0.00     0.009 A 
ATOM     18  C15 UNK A          54.509  40.357   5.024  0.00  0.00     0.021 A 
ATOM     19  C14 UNK A          55.489  40.677   4.069  0.00  0.00     0.112 A 
BRANCH  11  20
ATOM     20  O1  UNK A          57.496  37.811   1.984  0.00  0.00    -0.358 OA
ATOM     21  HO1 UNK A          57.066  38.078   1.169  0.00  0.00     0.218 HD
ENDBRANCH  11  20
ENDBRANCH   9  10
BRANCH   9  22
ATOM     22  N1  UNK A          57.916  34.146   3.424  0.00  0.00    -0.318 N 
ATOM     23  H1  UNK A          57.482  33.302   3.771  0.00  0.00     0.149 HD
BRANCH  22  24
ATOM     24  C17 UNK A          59.156  34.443   3.915  0.00  0.00     0.118 A 
ATOM     25  C18 UNK A          59.661  33.716   5.014  0.00  0.00     0.047 A 
ATOM     26  C19 UNK A          60.969  33.971   5.494  0.00  0.00    -0.046 A 
ATOM     27  C20 UNK A          61.722  35.008   4.900  0.00  0.00     0.023 A 
ATOM     28  C22 UNK A          61.572  33.166   6.583  0.00  0.00     0.044 C 
ATOM     29  C21 UNK A          61.171  35.734   3.831  0.00  0.00     0.113 A 
ATOM     30  N3  UNK A          59.935  35.420   3.373  0.00  0.00    -0.242 NA
ENDBRANCH  22  24
ENDBRANCH   9  22
ENDBRANCH   5   9
TORSDOF 5
ENDMDL
MODEL 6
REMARK VINA RESULT:      -5.7     18.000     20.381
REMARK  5 active torsions:
REMARK  status: ('A' for Active; 'I' for Inactive)
REMARK    1  A    between atoms: C7_7  and  C5_5 
REMARK    2  A    between atoms: C7_7  and  C8_8 
REMARK    3  A    between atoms: C7_7  and  N1_9 
REMARK    4  A    between atoms: N1_9  and  C17_19 
REMARK    5  A    between atoms: C9_10  and  O1_25 
ROOT
ATOM      1  C1  UNK A          67.344  16.859  -1.017  0.00  0.00     0.059 A 
ATOM      2  C2  UNK A          68.051  18.074  -0.973  0.00  0.00     0.022 A 
ATOM      3  C3  UNK A          67.363  19.290  -1.072  0.00  0.00     0.002 A 
ATOM      4  C4  UNK A          65.967  19.297  -1.221  0.00  0.00     0.008 A 
ATOM      5  C5  UNK A          65.213  18.096  -1.295  0.00  0.00    -0.003 A 
ATOM      6  C6  UNK A          65.932  16.861  -1.186  0.00  0.00     0.065 A 
ATOM      7 Cl1  UNK A          68.267  15.438  -0.863  0.00  0.00    -0.083 Cl
ATOM      8 Cl2  UNK A          65.146  15.353  -1.262  0.00  0.00    -0.082 Cl
ENDROOT
BRANCH   5   9
ATOM      9  C7  UNK A          63.718  18.179  -1.519  0.00  0.00     0.137 C 
BRANCH   9  10
ATOM     10  C8  UNK A          62.907  17.799  -0.308  0.00  0.00     0.009 A 
ATOM     11  C9  UNK A          61.635  17.165  -0.415  0.00  0.00     0.103 A 
ATOM     12  C10 UNK A          60.833  16.952   0.728  0.00  0.00     0.101 A 
ATOM     13  C11 UNK A          61.291  17.351   2.010  0.00  0.00     0.003 A 
ATOM     14  N2  UNK A          59.603  16.380   0.612  0.00  0.00    -0.254 NA
ATOM     15  C12 UNK A          62.562  17.947   2.128  0.00  0.00     0.011 A 
ATOM     16  C16 UNK A          60.449  17.148   3.125  0.00  0.00     0.012 A 
ATOM     17  C13 UNK A          63.355  18.161   0.987  0.00  0.00     0.009 A 
ATOM     18  C15 UNK A          59.186  16.551   2.956  0.00  0.00     0.021 A 
ATOM     19  C14 UNK A          58.777  16.170   1.667  0.00  0.00     0.112 A 
BRANCH  11  20
ATOM     20  O1  UNK A          61.122  16.768  -1.609  0.00  0.00    -0.358 OA
ATOM     21  HO1 UNK A          61.173  17.492  -2.237  0.00  0.00     0.218 HD
ENDBRANCH  11  20
ENDBRANCH   9  10
BRANCH   9  22
ATOM     22  N1  UNK A          63.350  19.466  -2.064  0.00  0.00    -0.318 N 
ATOM     23  H1  UNK A          63.831  20.271  -1.688  0.00  0.00     0.149 HD
BRANCH  22  24
ATOM     24  C17 UNK A          62.419  19.708  -3.035  0.00  0.00     0.118 A 
ATOM     25  C18 UNK A          62.112  21.041  -3.386  0.00  0.00     0.047 A 
ATOM     26  C19 UNK A          61.195  21.306  -4.433  0.00  0.00    -0.046 A 
ATOM     27  C20 UNK A          60.547  20.220  -5.062  0.00  0.00     0.023 A 
ATOM     28  C22 UNK A          60.917  22.686  -4.897  0.00  0.00     0.044 C 
ATOM     29  C21 UNK A          60.852  18.909  -4.660  0.00  0.00     0.113 A 
ATOM     30  N3  UNK A          61.774  18.702  -3.688  0.00  0.00    -0.242 NA
ENDBRANCH  22  24
ENDBRANCH   9  22
ENDBRANCH   5   9
TORSDOF 5
ENDMDL
MODEL 7
REMARK VINA RESULT:      -5.7     21.065     23.752
REMARK  5 active torsions:
REMARK  status: ('A' for Active; 'I' for Inactive)
REMARK    1  A    between atoms: C7_7  and  C5_5 
REMARK    2  A    between atoms: C7_7  and  C8_8 
REMARK    3  A    between atoms: C7_7  and  N1_9 
REMARK    4  A    between atoms: N1_9  and  C17_19 
REMARK    5  A    between atoms: C9_10  and  O1_25 
ROOT
ATOM      1  C1  UNK A          60.240  12.912   7.668  0.00  0.00     0.059 A 
ATOM      2  C2  UNK A          59.074  13.653   7.406  0.00  0.00     0.022 A 
ATOM      3  C3  UNK A          58.536  14.487   8.394  0.00  0.00     0.002 A 
ATOM      4  C4  UNK A          59.158  14.580   9.650  0.00  0.00     0.008 A 
ATOM      5  C5  UNK A          60.322  13.834   9.969  0.00  0.00    -0.003 A 
ATOM      6  C6  UNK A          60.863  12.990   8.944  0.00  0.00     0.065 A 
ATOM      7 Cl1  UNK A          60.830  11.949   6.395  0.00  0.00    -0.083 Cl
ATOM      8 Cl2  UNK A          62.254  12.043   9.200  0.00  0.00    -0.082 Cl
ENDROOT
BRANCH   5   9
ATOM      9  C7  UNK A          60.902  13.937  11.363  0.00  0.00     0.137 C 
BRANCH   9  10
ATOM     10  C8  UNK A          61.929  15.030  11.508  0.00  0.00     0.009 A 
ATOM     11  C9  UNK A          61.569  16.370  11.831  0.00  0.00     0.103 A 
ATOM     12  C10 UNK A          62.534  17.403  11.818  0.00  0.00     0.101 A 
ATOM     13  C11 UNK A          63.886  17.117  11.499  0.00  0.00     0.003 A 
ATOM     14  N2  UNK A          62.174  18.688  12.091  0.00  0.00    -0.254 NA
ATOM     15  C12 UNK A          64.255  15.788  11.212  0.00  0.00     0.011 A 
ATOM     16  C16 UNK A          64.815  18.179  11.467  0.00  0.00     0.012 A 
ATOM     17  C13 UNK A          63.292  14.765  11.223  0.00  0.00     0.009 A 
ATOM     18  C15 UNK A          64.398  19.491  11.759  0.00  0.00     0.021 A 
ATOM     19  C14 UNK A          63.048  19.725  12.071  0.00  0.00     0.112 A 
BRANCH  11  20
ATOM     20  O1  UNK A          60.293  16.725  12.133  0.00  0.00    -0.358 OA
ATOM     21  HO1 UNK A          60.026  17.462  11.578  0.00  0.00     0.218 HD
ENDBRANCH  11  20
ENDBRANCH   9  10
BRANCH   9  22
ATOM     22  N1  UNK A          59.852  14.014  12.353  0.00  0.00    -0.318 N 
ATOM     23  H1  UNK A          59.188  14.767  12.249  0.00  0.00     0.149 HD
BRANCH  22  24
ATOM     24  C17 UNK A          59.665  13.174  13.415  0.00  0.00     0.118 A 
ATOM     25  C18 UNK A          60.442  13.346  14.581  0.00  0.00     0.047 A 
ATOM     26  C19 UNK A          60.217  12.523  15.713  0.00  0.00    -0.046 A 
ATOM     27  C20 UNK A          59.257  11.491  15.623  0.00  0.00     0.023 A 
ATOM     28  C22 UNK A          60.944  12.732  16.988  0.00  0.00     0.044 C 
ATOM     29  C21 UNK A          58.529  11.328  14.433  0.00  0.00     0.113 A 
ATOM     30  N3  UNK A          58.744  12.172  13.394  0.00  0.00    -0.242 NA
ENDBRANCH  22  24
ENDBRANCH   9  22
ENDBRANCH   5   9
TORSDOF 5
ENDMDL
MODEL 8
REMARK VINA RESULT:      -5.6      2.057      2.758
REMARK  5 active torsions:
REMARK  status: ('A' for Active; 'I' for Inactive)
REMARK    1  A    between atoms: C7_7  and  C5_5 
REMARK    2  A    between atoms: C7_7  and  C8_8 
REMARK    3  A    between atoms: C7_7  and  N1_9 
REMARK    4  A    between atoms: N1_9  and  C17_19 
REMARK    5  A    between atoms: C9_10  and  O1_25 
ROOT
ATOM      1  C1  UNK A          54.890  38.393   2.643  0.00  0.00     0.059 A 
ATOM      2  C2  UNK A          53.831  37.908   3.430  0.00  0.00     0.022 A 
ATOM      3  C3  UNK A          53.940  36.664   4.063  0.00  0.00     0.002 A 
ATOM      4  C4  UNK A          55.105  35.897   3.909  0.00  0.00     0.008 A 
ATOM      5  C5  UNK A          56.191  36.333   3.105  0.00  0.00    -0.003 A 
ATOM      6  C6  UNK A          56.066  37.611   2.469  0.00  0.00     0.065 A 
ATOM      7 Cl1  UNK A          54.672  39.926   1.936  0.00  0.00    -0.083 Cl
ATOM      8 Cl2  UNK A          57.294  38.247   1.478  0.00  0.00    -0.082 Cl
ENDROOT
BRANCH   5   9
ATOM      9  C7  UNK A          57.390  35.425   2.934  0.00  0.00     0.137 C 
BRANCH   9  10
ATOM     10  C8  UNK A          58.468  35.652   3.962  0.00  0.00     0.009 A 
ATOM     11  C9  UNK A          59.538  34.731   4.156  0.00  0.00     0.103 A 
ATOM     12  C10 UNK A          60.451  34.895   5.222  0.00  0.00     0.101 A 
ATOM     13  C11 UNK A          60.327  35.994   6.110  0.00  0.00     0.003 A 
ATOM     14  N2  UNK A          61.448  33.989   5.423  0.00  0.00    -0.254 NA
ATOM     15  C12 UNK A          59.292  36.928   5.904  0.00  0.00     0.011 A 
ATOM     16  C16 UNK A          61.240  36.108   7.181  0.00  0.00     0.012 A 
ATOM     17  C13 UNK A          58.384  36.759   4.844  0.00  0.00     0.009 A 
ATOM     18  C15 UNK A          62.256  35.148   7.347  0.00  0.00     0.021 A 
ATOM     19  C14 UNK A          62.340  34.078   6.441  0.00  0.00     0.112 A 
BRANCH  11  20
ATOM     20  O1  UNK A          59.714  33.646   3.357  0.00  0.00    -0.358 OA
ATOM     21  HO1 UNK A          58.858  33.309   3.082  0.00  0.00     0.218 HD
ENDBRANCH  11  20
ENDBRANCH   9  10
BRANCH   9  22
ATOM     22  N1  UNK A          56.980  34.042   2.842  0.00  0.00    -0.318 N 
ATOM     23  H1  UNK A          56.643  33.614   3.692  0.00  0.00     0.149 HD
BRANCH  22  24
ATOM     24  C17 UNK A          57.002  33.255   1.725  0.00  0.00     0.118 A 
ATOM     25  C18 UNK A          55.823  32.592   1.320  0.00  0.00     0.047 A 
ATOM     26  C19 UNK A          55.815  31.822   0.131  0.00  0.00    -0.046 A 
ATOM     27  C20 UNK A          57.018  31.676  -0.594  0.00  0.00     0.023 A 
ATOM     28  C22 UNK A          54.576  31.189  -0.381  0.00  0.00     0.044 C 
ATOM     29  C21 UNK A          58.179  32.322  -0.140  0.00  0.00     0.113 A 
ATOM     30  N3  UNK A          58.127  33.089   0.977  0.00  0.00    -0.242 NA
ENDBRANCH  22  24
ENDBRANCH   9  22
ENDBRANCH   5   9
TORSDOF 5
ENDMDL
MODEL 9
REMARK VINA RESULT:      -5.6     24.625     27.118
REMARK  5 active torsions:
REMARK  status: ('A' for Active; 'I' for Inactive)
REMARK    1  A    between atoms: C7_7  and  C5_5 
REMARK    2  A    between atoms: C7_7  and  C8_8 
REMARK    3  A    between atoms: C7_7  and  N1_9 
REMARK    4  A    between atoms: N1_9  and  C17_19 
REMARK    5  A    between atoms: C9_10  and  O1_25 
ROOT
ATOM      1  C1  UNK A          31.794  24.270  14.162  0.00  0.00     0.059 A 
ATOM      2  C2  UNK A          31.237  25.524  14.469  0.00  0.00     0.022 A 
ATOM      3  C3  UNK A          32.065  26.580  14.869  0.00  0.00     0.002 A 
ATOM      4  C4  UNK A          33.452  26.386  14.969  0.00  0.00     0.008 A 
ATOM      5  C5  UNK A          34.057  25.132  14.692  0.00  0.00    -0.003 A 
ATOM      6  C6  UNK A          33.196  24.064  14.278  0.00  0.00     0.065 A 
ATOM      7 Cl1  UNK A          30.707  23.059  13.660  0.00  0.00    -0.083 Cl
ATOM      8 Cl2  UNK A          33.795  22.512  13.919  0.00  0.00    -0.082 Cl
ENDROOT
BRANCH   5   9
ATOM      9  C7  UNK A          35.551  24.979  14.881  0.00  0.00     0.137 C 
BRANCH   9  10
ATOM     10  C8  UNK A          36.357  25.418  13.686  0.00  0.00     0.009 A 
ATOM     11  C9  UNK A          36.818  26.758  13.534  0.00  0.00     0.103 A 
ATOM     12  C10 UNK A          37.444  27.177  12.338  0.00  0.00     0.101 A 
ATOM     13  C11 UNK A          37.641  26.261  11.273  0.00  0.00     0.003 A 
ATOM     14  N2  UNK A          37.848  28.468  12.185  0.00  0.00    -0.254 NA
ATOM     15  C12 UNK A          37.218  24.926  11.430  0.00  0.00     0.011 A 
ATOM     16  C16 UNK A          38.244  26.724  10.083  0.00  0.00     0.012 A 
ATOM     17  C13 UNK A          36.592  24.515  12.620  0.00  0.00     0.009 A 
ATOM     18  C15 UNK A          38.647  28.068   9.972  0.00  0.00     0.021 A 
ATOM     19  C14 UNK A          38.433  28.937  11.055  0.00  0.00     0.112 A 
BRANCH  11  20
ATOM     20  O1  UNK A          36.653  27.696  14.503  0.00  0.00    -0.358 OA
ATOM     21  HO1 UNK A          36.161  28.440  14.148  0.00  0.00     0.218 HD
ENDBRANCH  11  20
ENDBRANCH   9  10
BRANCH   9  22
ATOM     22  N1  UNK A          35.981  25.602  16.112  0.00  0.00    -0.318 N 
ATOM     23  H1  UNK A          36.379  26.528  16.034  0.00  0.00     0.149 HD
BRANCH  22  24
ATOM     24  C17 UNK A          35.905  25.071  17.369  0.00  0.00     0.118 A 
ATOM     25  C18 UNK A          35.933  25.931  18.489  0.00  0.00     0.047 A 
ATOM     26  C19 UNK A          35.793  25.400  19.795  0.00  0.00    -0.046 A 
ATOM     27  C20 UNK A          35.698  24.000  19.954  0.00  0.00     0.023 A 
ATOM     28  C22 UNK A          35.721  26.274  20.990  0.00  0.00     0.044 C 
ATOM     29  C21 UNK A          35.711  23.174  18.818  0.00  0.00     0.113 A 
ATOM     30  N3  UNK A          35.796  23.731  17.584  0.00  0.00    -0.242 NA
ENDBRANCH  22  24
ENDBRANCH   9  22
ENDBRANCH   5   9
TORSDOF 5
ENDMDL
