REMARK  4 active torsions:
REMARK  status: ('A' for Active; 'I' for Inactive)
REMARK    1  A    between atoms: C_5  and  C_8 
REMARK    2  A    between atoms: C_16  and  O_17 
REMARK    3  A    between atoms: O_17  and  C_18 
REMARK    4  A    between atoms: C_21  and  C_24 
ROOT
ATOM      1  O   UNL d   1      -1.200  -2.447   3.010  0.00  0.00    -0.287 OA
ATOM      2  C   UNL d   1      -1.603  -1.239   2.528  0.00  0.00     0.196 A 
ATOM      3  C   UNL d   1      -2.717  -0.608   3.072  0.00  0.00     0.042 A 
ATOM      4  C   UNL d   1      -3.131   0.628   2.581  0.00  0.00     0.006 A 
ATOM      5  C   UNL d   1      -2.433   1.259   1.532  0.00  0.00     0.035 A 
ATOM      6  C   UNL d   1      -1.308   0.603   0.996  0.00  0.00     0.006 A 
ATOM      7  C   UNL d   1      -0.900  -0.633   1.491  0.00  0.00     0.042 A 
ENDROOT
BRANCH   5   8
ATOM      8  C   UNL d   1      -2.876   2.596   0.997  0.00  0.00     0.149 A 
ATOM      9  C   UNL d   1      -2.313   3.090   0.159  0.00  0.00     0.080 A 
ATOM     10  C   UNL d   1      -2.651   4.383  -0.482  0.00  0.00     0.205 A 
ATOM     11  O   UNL d   1      -2.000   4.876  -1.381  0.00  0.00    -0.286 OA
ATOM     12  C   UNL d   1      -3.856   4.972   0.128  0.00  0.00     0.116 A 
ATOM     13  C   UNL d   1      -4.504   6.227  -0.189  0.00  0.00     0.205 A 
ATOM     14  C   UNL d   1      -4.440   4.194   1.181  0.00  0.00     0.193 A 
ATOM     15  O   UNL d   1      -4.067   7.019  -1.208  0.00  0.00    -0.286 OA
ATOM     16  C   UNL d   1      -5.602   6.673   0.543  0.00  0.00     0.083 A 
ATOM     17  C   UNL d   1      -6.131   5.933   1.595  0.00  0.00     0.190 A 
ATOM     18  C   UNL d   1      -5.582   4.687   1.912  0.00  0.00     0.264 A 
ATOM     19  O   UNL d   1      -6.117   3.898   2.891  0.00  0.00    -0.280 OA
ATOM     20  O   UNL d   1      -3.786   3.012   1.508  0.00  0.00    -0.450 OA
BRANCH  17  21
ATOM     21  O   UNL d   1      -7.242   6.436   2.251  0.00  0.00    -0.450 OA
BRANCH  21  22
ATOM     22  C   UNL d   1      -7.324   6.606   3.620  0.00  0.00     0.145 A 
ATOM     23  C   UNL d   1      -6.178   6.733   4.404  0.00  0.00     0.038 A 
ATOM     24  C   UNL d   1      -6.287   6.923   5.779  0.00  0.00     0.006 A 
ATOM     25  C   UNL d   1      -7.549   7.002   6.399  0.00  0.00     0.035 A 
ATOM     26  C   UNL d   1      -8.694   6.890   5.588  0.00  0.00     0.006 A 
ATOM     27  C   UNL d   1      -8.579   6.699   4.213  0.00  0.00     0.038 A 
BRANCH  25  28
ATOM     28  C   UNL d   1      -7.669   7.205   7.889  0.00  0.00     0.148 A 
ATOM     29  C   UNL d   1      -8.690   7.257   8.358  0.00  0.00     0.080 A 
ATOM     30  C   UNL d   1      -8.979   7.431   9.802  0.00  0.00     0.205 A 
ATOM     31  O   UNL d   1     -10.103   7.481  10.260  0.00  0.00    -0.286 OA
ATOM     32  C   UNL d   1      -7.731   7.534  10.576  0.00  0.00     0.113 A 
ATOM     33  C   UNL d   1      -7.563   7.711  12.005  0.00  0.00     0.205 A 
ATOM     34  C   UNL d   1      -6.530   7.448   9.794  0.00  0.00     0.155 A 
ATOM     35  O   UNL d   1      -8.633   7.798  12.845  0.00  0.00    -0.286 OA
ATOM     36  C   UNL d   1      -6.293   7.799  12.571  0.00  0.00     0.084 A 
ATOM     37  C   UNL d   1      -5.143   7.719  11.794  0.00  0.00     0.202 A 
ATOM     38  O   UNL d   1      -3.918   7.811  12.383  0.00  0.00    -0.286 OA
ATOM     39  C   UNL d   1      -5.238   7.545  10.419  0.00  0.00     0.080 A 
ATOM     40  O   UNL d   1      -6.683   7.287   8.426  0.00  0.00    -0.453 OA
ENDBRANCH  25  28
ENDBRANCH  21  22
ENDBRANCH  17  21
ENDBRANCH   5   8
TORSDOF 4
