MODEL 1
REMARK VINA RESULT:      -7.2      0.000      0.000
REMARK  4 active torsions:
REMARK  status: ('A' for Active; 'I' for Inactive)
REMARK    1  A    between atoms: C_5  and  C_8 
REMARK    2  A    between atoms: C_16  and  O_17 
REMARK    3  A    between atoms: O_17  and  C_18 
REMARK    4  A    between atoms: C_21  and  C_24 
ROOT
ATOM      1  O   UNL d   1      66.678  17.810  -0.876  0.00  0.00    -0.287 OA
ATOM      2  C   UNL d   1      65.523  17.488  -0.230  0.00  0.00     0.196 A 
ATOM      3  C   UNL d   1      65.128  16.158  -0.132  0.00  0.00     0.042 A 
ATOM      4  C   UNL d   1      63.947  15.825   0.528  0.00  0.00     0.006 A 
ATOM      5  C   UNL d   1      63.137  16.823   1.106  0.00  0.00     0.035 A 
ATOM      6  C   UNL d   1      63.556  18.163   0.995  0.00  0.00     0.006 A 
ATOM      7  C   UNL d   1      64.737  18.489   0.333  0.00  0.00     0.042 A 
ENDROOT
BRANCH   5   8
ATOM      8  C   UNL d   1      61.859  16.469   1.821  0.00  0.00     0.149 A 
ATOM      9  C   UNL d   1      60.870  16.850   1.445  0.00  0.00     0.080 A 
ATOM     10  C   UNL d   1      59.539  16.560   2.028  0.00  0.00     0.205 A 
ATOM     11  O   UNL d   1      58.501  17.008   1.585  0.00  0.00    -0.286 OA
ATOM     12  C   UNL d   1      59.662  15.680   3.204  0.00  0.00     0.116 A 
ATOM     13  C   UNL d   1      58.614  15.179   4.067  0.00  0.00     0.205 A 
ATOM     14  C   UNL d   1      61.004  15.293   3.529  0.00  0.00     0.193 A 
ATOM     15  O   UNL d   1      57.299  15.439   3.819  0.00  0.00    -0.286 OA
ATOM     16  C   UNL d   1      58.914  14.412   5.190  0.00  0.00     0.083 A 
ATOM     17  C   UNL d   1      60.223  14.082   5.524  0.00  0.00     0.190 A 
ATOM     18  C   UNL d   1      61.274  14.491   4.698  0.00  0.00     0.264 A 
ATOM     19  O   UNL d   1      62.566  14.128   4.952  0.00  0.00    -0.280 OA
ATOM     20  O   UNL d   1      62.007  15.814   2.721  0.00  0.00    -0.450 OA
BRANCH  17  21
ATOM     21  O   UNL d   1      60.431  13.291   6.641  0.00  0.00    -0.450 OA
BRANCH  21  22
ATOM     22  C   UNL d   1      60.606  13.784   7.920  0.00  0.00     0.145 A 
ATOM     23  C   UNL d   1      59.519  14.031   8.757  0.00  0.00     0.038 A 
ATOM     24  C   UNL d   1      59.723  14.510  10.049  0.00  0.00     0.006 A 
ATOM     25  C   UNL d   1      61.024  14.741  10.536  0.00  0.00     0.035 A 
ATOM     26  C   UNL d   1      62.109  14.468   9.682  0.00  0.00     0.006 A 
ATOM     27  C   UNL d   1      61.899  13.990   8.391  0.00  0.00     0.038 A 
BRANCH  25  28
ATOM     28  C   UNL d   1      61.247  15.262  11.934  0.00  0.00     0.148 A 
ATOM     29  C   UNL d   1      61.190  14.551  12.803  0.00  0.00     0.080 A 
ATOM     30  C   UNL d   1      61.403  14.897  14.229  0.00  0.00     0.205 A 
ATOM     31  O   UNL d   1      61.330  14.089  15.134  0.00  0.00    -0.286 OA
ATOM     32  C   UNL d   1      61.705  16.330  14.380  0.00  0.00     0.113 A 
ATOM     33  C   UNL d   1      61.975  17.077  15.592  0.00  0.00     0.205 A 
ATOM     34  C   UNL d   1      61.729  17.071  13.150  0.00  0.00     0.155 A 
ATOM     35  O   UNL d   1      61.986  16.474  16.815  0.00  0.00    -0.286 OA
ATOM     36  C   UNL d   1      62.235  18.445  15.548  0.00  0.00     0.084 A 
ATOM     37  C   UNL d   1      62.247  19.144  14.347  0.00  0.00     0.202 A 
ATOM     38  O   UNL d   1      62.503  20.482  14.343  0.00  0.00    -0.286 OA
ATOM     39  C   UNL d   1      62.000  18.484  13.150  0.00  0.00     0.080 A 
ATOM     40  O   UNL d   1      61.463  16.366  11.987  0.00  0.00    -0.453 OA
ENDBRANCH  25  28
ENDBRANCH  21  22
ENDBRANCH  17  21
ENDBRANCH   5   8
TORSDOF 4
ENDMDL
MODEL 2
REMARK VINA RESULT:      -7.2     14.833     17.824
REMARK  4 active torsions:
REMARK  status: ('A' for Active; 'I' for Inactive)
REMARK    1  A    between atoms: C_5  and  C_8 
REMARK    2  A    between atoms: C_16  and  O_17 
REMARK    3  A    between atoms: O_17  and  C_18 
REMARK    4  A    between atoms: C_21  and  C_24 
ROOT
ATOM      1  O   UNL d   1      58.366  22.201  -5.147  0.00  0.00    -0.287 OA
ATOM      2  C   UNL d   1      57.567  23.213  -4.707  0.00  0.00     0.196 A 
ATOM      3  C   UNL d   1      56.723  23.870  -5.596  0.00  0.00     0.042 A 
ATOM      4  C   UNL d   1      55.905  24.905  -5.148  0.00  0.00     0.006 A 
ATOM      5  C   UNL d   1      55.916  25.302  -3.796  0.00  0.00     0.035 A 
ATOM      6  C   UNL d   1      56.778  24.622  -2.914  0.00  0.00     0.006 A 
ATOM      7  C   UNL d   1      57.594  23.589  -3.368  0.00  0.00     0.042 A 
ENDROOT
BRANCH   5   8
ATOM      8  C   UNL d   1      55.033  26.420  -3.306  0.00  0.00     0.149 A 
ATOM      9  C   UNL d   1      53.954  26.228  -3.059  0.00  0.00     0.080 A 
ATOM     10  C   UNL d   1      52.982  27.221  -2.543  0.00  0.00     0.205 A 
ATOM     11  O   UNL d   1      51.821  26.960  -2.301  0.00  0.00    -0.286 OA
ATOM     12  C   UNL d   1      53.616  28.542  -2.385  0.00  0.00     0.116 A 
ATOM     13  C   UNL d   1      53.018  29.780  -1.931  0.00  0.00     0.205 A 
ATOM     14  C   UNL d   1      55.003  28.592  -2.746  0.00  0.00     0.193 A 
ATOM     15  O   UNL d   1      51.723  29.834  -1.510  0.00  0.00    -0.286 OA
ATOM     16  C   UNL d   1      53.748  30.965  -1.911  0.00  0.00     0.083 A 
ATOM     17  C   UNL d   1      55.080  31.013  -2.311  0.00  0.00     0.190 A 
ATOM     18  C   UNL d   1      55.728  29.839  -2.706  0.00  0.00     0.264 A 
ATOM     19  O   UNL d   1      57.053  29.831  -3.037  0.00  0.00    -0.280 OA
ATOM     20  O   UNL d   1      55.558  27.410  -3.222  0.00  0.00    -0.450 OA
BRANCH  17  21
ATOM     21  O   UNL d   1      55.740  32.227  -2.232  0.00  0.00    -0.450 OA
BRANCH  21  22
ATOM     22  C   UNL d   1      56.744  32.507  -1.325  0.00  0.00     0.145 A 
ATOM     23  C   UNL d   1      56.648  32.108   0.008  0.00  0.00     0.038 A 
ATOM     24  C   UNL d   1      57.682  32.385   0.899  0.00  0.00     0.006 A 
ATOM     25  C   UNL d   1      58.842  33.059   0.471  0.00  0.00     0.035 A 
ATOM     26  C   UNL d   1      58.928  33.437  -0.882  0.00  0.00     0.006 A 
ATOM     27  C   UNL d   1      57.891  33.159  -1.768  0.00  0.00     0.038 A 
BRANCH  25  28
ATOM     28  C   UNL d   1      59.962  33.363   1.436  0.00  0.00     0.148 A 
ATOM     29  C   UNL d   1      61.025  33.344   1.070  0.00  0.00     0.080 A 
ATOM     30  C   UNL d   1      62.232  33.637   1.880  0.00  0.00     0.205 A 
ATOM     31  O   UNL d   1      63.362  33.604   1.436  0.00  0.00    -0.286 OA
ATOM     32  C   UNL d   1      61.863  33.964   3.267  0.00  0.00     0.113 A 
ATOM     33  C   UNL d   1      62.729  34.307   4.378  0.00  0.00     0.205 A 
ATOM     34  C   UNL d   1      60.454  33.930   3.539  0.00  0.00     0.155 A 
ATOM     35  O   UNL d   1      64.083  34.376   4.234  0.00  0.00    -0.286 OA
ATOM     36  C   UNL d   1      62.202  34.580   5.639  0.00  0.00     0.084 A 
ATOM     37  C   UNL d   1      60.834  34.536   5.881  0.00  0.00     0.202 A 
ATOM     38  O   UNL d   1      60.356  34.806   7.127  0.00  0.00    -0.286 OA
ATOM     39  C   UNL d   1      59.952  34.217   4.856  0.00  0.00     0.080 A 
ATOM     40  O   UNL d   1      59.620  33.594   2.483  0.00  0.00    -0.453 OA
ENDBRANCH  25  28
ENDBRANCH  21  22
ENDBRANCH  17  21
ENDBRANCH   5   8
TORSDOF 4
ENDMDL
MODEL 3
REMARK VINA RESULT:      -7.1     23.890     27.649
REMARK  4 active torsions:
REMARK  status: ('A' for Active; 'I' for Inactive)
REMARK    1  A    between atoms: C_5  and  C_8 
REMARK    2  A    between atoms: C_16  and  O_17 
REMARK    3  A    between atoms: O_17  and  C_18 
REMARK    4  A    between atoms: C_21  and  C_24 
ROOT
ATOM      1  O   UNL d   1      42.276  33.961  15.869  0.00  0.00    -0.287 OA
ATOM      2  C   UNL d   1      41.603  33.975  14.685  0.00  0.00     0.196 A 
ATOM      3  C   UNL d   1      40.282  34.409  14.639  0.00  0.00     0.042 A 
ATOM      4  C   UNL d   1      39.592  34.424  13.430  0.00  0.00     0.006 A 
ATOM      5  C   UNL d   1      40.214  34.005  12.237  0.00  0.00     0.035 A 
ATOM      6  C   UNL d   1      41.552  33.569  12.306  0.00  0.00     0.006 A 
ATOM      7  C   UNL d   1      42.236  33.556  13.519  0.00  0.00     0.042 A 
ENDROOT
BRANCH   5   8
ATOM      8  C   UNL d   1      39.472  34.020  10.926  0.00  0.00     0.149 A 
ATOM      9  C   UNL d   1      39.059  34.981  10.515  0.00  0.00     0.080 A 
ATOM     10  C   UNL d   1      38.338  35.148   9.231  0.00  0.00     0.205 A 
ATOM     11  O   UNL d   1      37.904  36.212   8.839  0.00  0.00    -0.286 OA
ATOM     12  C   UNL d   1      38.218  33.860   8.526  0.00  0.00     0.116 A 
ATOM     13  C   UNL d   1      37.572  33.583   7.260  0.00  0.00     0.205 A 
ATOM     14  C   UNL d   1      38.810  32.744   9.203  0.00  0.00     0.193 A 
ATOM     15  O   UNL d   1      37.025  34.577   6.505  0.00  0.00    -0.286 OA
ATOM     16  C   UNL d   1      37.483  32.283   6.768  0.00  0.00     0.083 A 
ATOM     17  C   UNL d   1      38.019  31.201   7.458  0.00  0.00     0.190 A 
ATOM     18  C   UNL d   1      38.704  31.412   8.658  0.00  0.00     0.264 A 
ATOM     19  O   UNL d   1      39.305  30.385   9.329  0.00  0.00    -0.280 OA
ATOM     20  O   UNL d   1      39.390  33.011  10.438  0.00  0.00    -0.450 OA
BRANCH  17  21
ATOM     21  O   UNL d   1      37.913  29.945   6.883  0.00  0.00    -0.450 OA
BRANCH  21  22
ATOM     22  C   UNL d   1      38.844  29.407   6.015  0.00  0.00     0.145 A 
ATOM     23  C   UNL d   1      39.134  30.017   4.795  0.00  0.00     0.038 A 
ATOM     24  C   UNL d   1      40.091  29.467   3.947  0.00  0.00     0.006 A 
ATOM     25  C   UNL d   1      40.788  28.298   4.307  0.00  0.00     0.035 A 
ATOM     26  C   UNL d   1      40.495  27.707   5.551  0.00  0.00     0.006 A 
ATOM     27  C   UNL d   1      39.536  28.262   6.395  0.00  0.00     0.038 A 
BRANCH  25  28
ATOM     28  C   UNL d   1      41.823  27.698   3.387  0.00  0.00     0.148 A 
ATOM     29  C   UNL d   1      41.951  26.581   3.354  0.00  0.00     0.080 A 
ATOM     30  C   UNL d   1      42.903  25.837   2.495  0.00  0.00     0.205 A 
ATOM     31  O   UNL d   1      43.003  24.626   2.497  0.00  0.00    -0.286 OA
ATOM     32  C   UNL d   1      43.690  26.762   1.664  0.00  0.00     0.113 A 
ATOM     33  C   UNL d   1      44.723  26.454   0.695  0.00  0.00     0.205 A 
ATOM     34  C   UNL d   1      43.381  28.151   1.854  0.00  0.00     0.155 A 
ATOM     35  O   UNL d   1      45.093  25.170   0.428  0.00  0.00    -0.286 OA
ATOM     36  C   UNL d   1      45.377  27.469  -0.001  0.00  0.00     0.084 A 
ATOM     37  C   UNL d   1      45.066  28.808   0.202  0.00  0.00     0.202 A 
ATOM     38  O   UNL d   1      45.729  29.773  -0.496  0.00  0.00    -0.286 OA
ATOM     39  C   UNL d   1      44.082  29.167   1.115  0.00  0.00     0.080 A 
ATOM     40  O   UNL d   1      42.400  28.454   2.785  0.00  0.00    -0.453 OA
ENDBRANCH  25  28
ENDBRANCH  21  22
ENDBRANCH  17  21
ENDBRANCH   5   8
TORSDOF 4
ENDMDL
MODEL 4
REMARK VINA RESULT:      -6.9     26.428     29.180
REMARK  4 active torsions:
REMARK  status: ('A' for Active; 'I' for Inactive)
REMARK    1  A    between atoms: C_5  and  C_8 
REMARK    2  A    between atoms: C_16  and  O_17 
REMARK    3  A    between atoms: O_17  and  C_18 
REMARK    4  A    between atoms: C_21  and  C_24 
ROOT
ATOM      1  O   UNL d   1      37.407  24.649  12.561  0.00  0.00    -0.287 OA
ATOM      2  C   UNL d   1      37.683  25.924  12.170  0.00  0.00     0.196 A 
ATOM      3  C   UNL d   1      38.148  26.174  10.883  0.00  0.00     0.042 A 
ATOM      4  C   UNL d   1      38.431  27.477  10.481  0.00  0.00     0.006 A 
ATOM      5  C   UNL d   1      38.252  28.560  11.364  0.00  0.00     0.035 A 
ATOM      6  C   UNL d   1      37.780  28.285  12.662  0.00  0.00     0.006 A 
ATOM      7  C   UNL d   1      37.500  26.980  13.058  0.00  0.00     0.042 A 
ENDROOT
BRANCH   5   8
ATOM      8  C   UNL d   1      38.556  29.972  10.935  0.00  0.00     0.149 A 
ATOM      9  C   UNL d   1      38.867  30.192   9.877  0.00  0.00     0.080 A 
ATOM     10  C   UNL d   1      39.167  31.529   9.312  0.00  0.00     0.205 A 
ATOM     11  O   UNL d   1      39.509  31.708   8.160  0.00  0.00    -0.286 OA
ATOM     12  C   UNL d   1      39.006  32.579  10.333  0.00  0.00     0.116 A 
ATOM     13  C   UNL d   1      39.219  34.004  10.200  0.00  0.00     0.205 A 
ATOM     14  C   UNL d   1      38.598  32.107  11.623  0.00  0.00     0.193 A 
ATOM     15  O   UNL d   1      39.554  34.568   9.005  0.00  0.00    -0.286 OA
ATOM     16  C   UNL d   1      39.092  34.855  11.296  0.00  0.00     0.083 A 
ATOM     17  C   UNL d   1      38.744  34.379  12.555  0.00  0.00     0.190 A 
ATOM     18  C   UNL d   1      38.471  33.020  12.733  0.00  0.00     0.264 A 
ATOM     19  O   UNL d   1      38.057  32.525  13.938  0.00  0.00    -0.280 OA
ATOM     20  O   UNL d   1      38.438  30.732  11.753  0.00  0.00    -0.450 OA
BRANCH  17  21
ATOM     21  O   UNL d   1      38.611  35.297  13.584  0.00  0.00    -0.450 OA
BRANCH  21  22
ATOM     22  C   UNL d   1      39.657  36.032  14.108  0.00  0.00     0.145 A 
ATOM     23  C   UNL d   1      39.639  37.426  14.100  0.00  0.00     0.038 A 
ATOM     24  C   UNL d   1      40.696  38.145  14.652  0.00  0.00     0.006 A 
ATOM     25  C   UNL d   1      41.792  37.481  15.237  0.00  0.00     0.035 A 
ATOM     26  C   UNL d   1      41.783  36.074  15.252  0.00  0.00     0.006 A 
ATOM     27  C   UNL d   1      40.723  35.360  14.697  0.00  0.00     0.038 A 
BRANCH  25  28
ATOM     28  C   UNL d   1      42.940  38.258  15.833  0.00  0.00     0.148 A 
ATOM     29  C   UNL d   1      42.929  39.381  15.785  0.00  0.00     0.080 A 
ATOM     30  C   UNL d   1      43.964  40.288  16.338  0.00  0.00     0.205 A 
ATOM     31  O   UNL d   1      43.906  41.499  16.260  0.00  0.00    -0.286 OA
ATOM     32  C   UNL d   1      45.045  39.519  16.977  0.00  0.00     0.113 A 
ATOM     33  C   UNL d   1      46.240  40.010  17.634  0.00  0.00     0.205 A 
ATOM     34  C   UNL d   1      44.877  38.094  16.931  0.00  0.00     0.155 A 
ATOM     35  O   UNL d   1      46.499  41.344  17.742  0.00  0.00    -0.286 OA
ATOM     36  C   UNL d   1      47.171  39.129  18.179  0.00  0.00     0.084 A 
ATOM     37  C   UNL d   1      46.991  37.752  18.119  0.00  0.00     0.202 A 
ATOM     38  O   UNL d   1      47.924  36.921  18.662  0.00  0.00    -0.286 OA
ATOM     39  C   UNL d   1      45.863  37.219  17.506  0.00  0.00     0.080 A 
ATOM     40  O   UNL d   1      43.740  37.617  16.297  0.00  0.00    -0.453 OA
ENDBRANCH  25  28
ENDBRANCH  21  22
ENDBRANCH  17  21
ENDBRANCH   5   8
TORSDOF 4
ENDMDL
MODEL 5
REMARK VINA RESULT:      -6.9      6.821     11.494
REMARK  4 active torsions:
REMARK  status: ('A' for Active; 'I' for Inactive)
REMARK    1  A    between atoms: C_5  and  C_8 
REMARK    2  A    between atoms: C_16  and  O_17 
REMARK    3  A    between atoms: O_17  and  C_18 
REMARK    4  A    between atoms: C_21  and  C_24 
ROOT
ATOM      1  O   UNL d   1      58.627   9.757  16.311  0.00  0.00    -0.287 OA
ATOM      2  C   UNL d   1      59.102  10.818  15.603  0.00  0.00     0.196 A 
ATOM      3  C   UNL d   1      59.992  11.708  16.195  0.00  0.00     0.042 A 
ATOM      4  C   UNL d   1      60.480  12.795  15.473  0.00  0.00     0.006 A 
ATOM      5  C   UNL d   1      60.084  13.011  14.137  0.00  0.00     0.035 A 
ATOM      6  C   UNL d   1      59.182  12.097  13.558  0.00  0.00     0.006 A 
ATOM      7  C   UNL d   1      58.698  11.014  14.286  0.00  0.00     0.042 A 
ENDROOT
BRANCH   5   8
ATOM      8  C   UNL d   1      60.609  14.184  13.351  0.00  0.00     0.149 A 
ATOM      9  C   UNL d   1      60.312  14.329  12.277  0.00  0.00     0.080 A 
ATOM     10  C   UNL d   1      60.726  15.447  11.396  0.00  0.00     0.205 A 
ATOM     11  O   UNL d   1      60.382  15.549  10.236  0.00  0.00    -0.286 OA
ATOM     12  C   UNL d   1      61.606  16.384  12.116  0.00  0.00     0.116 A 
ATOM     13  C   UNL d   1      62.241  17.586  11.618  0.00  0.00     0.205 A 
ATOM     14  C   UNL d   1      61.869  16.036  13.482  0.00  0.00     0.193 A 
ATOM     15  O   UNL d   1      62.016  18.041  10.354  0.00  0.00    -0.286 OA
ATOM     16  C   UNL d   1      63.111  18.323  12.419  0.00  0.00     0.083 A 
ATOM     17  C   UNL d   1      63.397  17.949  13.727  0.00  0.00     0.190 A 
ATOM     18  C   UNL d   1      62.771  16.828  14.281  0.00  0.00     0.264 A 
ATOM     19  O   UNL d   1      62.971  16.469  15.585  0.00  0.00    -0.280 OA
ATOM     20  O   UNL d   1      61.291  14.857  13.938  0.00  0.00    -0.450 OA
BRANCH  17  21
ATOM     21  O   UNL d   1      64.250  18.754  14.463  0.00  0.00    -0.450 OA
BRANCH  21  22
ATOM     22  C   UNL d   1      63.832  19.640  15.438  0.00  0.00     0.145 A 
ATOM     23  C   UNL d   1      62.950  20.679  15.142  0.00  0.00     0.038 A 
ATOM     24  C   UNL d   1      62.529  21.547  16.146  0.00  0.00     0.006 A 
ATOM     25  C   UNL d   1      62.973  21.387  17.473  0.00  0.00     0.035 A 
ATOM     26  C   UNL d   1      63.848  20.322  17.754  0.00  0.00     0.006 A 
ATOM     27  C   UNL d   1      64.268  19.456  16.746  0.00  0.00     0.038 A 
BRANCH  25  28
ATOM     28  C   UNL d   1      62.519  22.329  18.561  0.00  0.00     0.148 A 
ATOM     29  C   UNL d   1      63.135  23.241  18.793  0.00  0.00     0.080 A 
ATOM     30  C   UNL d   1      62.820  24.271  19.812  0.00  0.00     0.205 A 
ATOM     31  O   UNL d   1      63.520  25.241  20.025  0.00  0.00    -0.286 OA
ATOM     32  C   UNL d   1      61.565  23.948  20.510  0.00  0.00     0.113 A 
ATOM     33  C   UNL d   1      60.902  24.683  21.569  0.00  0.00     0.205 A 
ATOM     34  C   UNL d   1      60.928  22.738  20.072  0.00  0.00     0.155 A 
ATOM     35  O   UNL d   1      61.413  25.848  22.058  0.00  0.00    -0.286 OA
ATOM     36  C   UNL d   1      59.712  24.219  22.126  0.00  0.00     0.084 A 
ATOM     37  C   UNL d   1      59.115  23.041  21.691  0.00  0.00     0.202 A 
ATOM     38  O   UNL d   1      57.953  22.618  22.261  0.00  0.00    -0.286 OA
ATOM     39  C   UNL d   1      59.700  22.294  20.676  0.00  0.00     0.080 A 
ATOM     40  O   UNL d   1      61.560  22.025  19.066  0.00  0.00    -0.453 OA
ENDBRANCH  25  28
ENDBRANCH  21  22
ENDBRANCH  17  21
ENDBRANCH   5   8
TORSDOF 4
ENDMDL
MODEL 6
REMARK VINA RESULT:      -6.9     23.282     26.853
REMARK  4 active torsions:
REMARK  status: ('A' for Active; 'I' for Inactive)
REMARK    1  A    between atoms: C_5  and  C_8 
REMARK    2  A    between atoms: C_16  and  O_17 
REMARK    3  A    between atoms: O_17  and  C_18 
REMARK    4  A    between atoms: C_21  and  C_24 
ROOT
ATOM      1  O   UNL d   1      38.934  38.392   7.513  0.00  0.00    -0.287 OA
ATOM      2  C   UNL d   1      38.900  37.076   7.860  0.00  0.00     0.196 A 
ATOM      3  C   UNL d   1      39.391  36.112   6.985  0.00  0.00     0.042 A 
ATOM      4  C   UNL d   1      39.359  34.765   7.338  0.00  0.00     0.006 A 
ATOM      5  C   UNL d   1      38.832  34.356   8.579  0.00  0.00     0.035 A 
ATOM      6  C   UNL d   1      38.341  35.348   9.450  0.00  0.00     0.006 A 
ATOM      7  C   UNL d   1      38.376  36.693   9.091  0.00  0.00     0.042 A 
ENDROOT
BRANCH   5   8
ATOM      8  C   UNL d   1      38.794  32.900   8.966  0.00  0.00     0.149 A 
ATOM      9  C   UNL d   1      38.907  32.592  10.041  0.00  0.00     0.080 A 
ATOM     10  C   UNL d   1      38.860  31.207  10.566  0.00  0.00     0.205 A 
ATOM     11  O   UNL d   1      38.997  30.930  11.741  0.00  0.00    -0.286 OA
ATOM     12  C   UNL d   1      38.642  30.240   9.476  0.00  0.00     0.116 A 
ATOM     13  C   UNL d   1      38.555  28.797   9.557  0.00  0.00     0.205 A 
ATOM     14  C   UNL d   1      38.518  30.820   8.171  0.00  0.00     0.193 A 
ATOM     15  O   UNL d   1      38.604  28.144  10.752  0.00  0.00    -0.286 OA
ATOM     16  C   UNL d   1      38.420  28.021   8.408  0.00  0.00     0.083 A 
ATOM     17  C   UNL d   1      38.349  28.592   7.142  0.00  0.00     0.190 A 
ATOM     18  C   UNL d   1      38.372  29.983   7.006  0.00  0.00     0.264 A 
ATOM     19  O   UNL d   1      38.233  30.584   5.786  0.00  0.00    -0.280 OA
ATOM     20  O   UNL d   1      38.647  32.202   8.098  0.00  0.00    -0.450 OA
BRANCH  17  21
ATOM     21  O   UNL d   1      38.185  27.748   6.056  0.00  0.00    -0.450 OA
BRANCH  21  22
ATOM     22  C   UNL d   1      39.207  27.369   5.207  0.00  0.00     0.145 A 
ATOM     23  C   UNL d   1      38.962  26.576   4.087  0.00  0.00     0.038 A 
ATOM     24  C   UNL d   1      40.005  26.223   3.235  0.00  0.00     0.006 A 
ATOM     25  C   UNL d   1      41.319  26.668   3.480  0.00  0.00     0.035 A 
ATOM     26  C   UNL d   1      41.543  27.483   4.605  0.00  0.00     0.006 A 
ATOM     27  C   UNL d   1      40.496  27.832   5.455  0.00  0.00     0.038 A 
BRANCH  25  28
ATOM     28  C   UNL d   1      42.451  26.285   2.560  0.00  0.00     0.148 A 
ATOM     29  C   UNL d   1      42.617  25.200   2.313  0.00  0.00     0.080 A 
ATOM     30  C   UNL d   1      43.667  24.661   1.414  0.00  0.00     0.205 A 
ATOM     31  O   UNL d   1      43.805  23.478   1.178  0.00  0.00    -0.286 OA
ATOM     32  C   UNL d   1      44.496  25.748   0.868  0.00  0.00     0.113 A 
ATOM     33  C   UNL d   1      45.621  25.660  -0.041  0.00  0.00     0.205 A 
ATOM     34  C   UNL d   1      44.126  27.064   1.307  0.00  0.00     0.155 A 
ATOM     35  O   UNL d   1      46.055  24.463  -0.528  0.00  0.00    -0.286 OA
ATOM     36  C   UNL d   1      46.303  26.805  -0.450  0.00  0.00     0.084 A 
ATOM     37  C   UNL d   1      45.932  28.069  -0.008  0.00  0.00     0.202 A 
ATOM     38  O   UNL d   1      46.623  29.165  -0.428  0.00  0.00    -0.286 OA
ATOM     39  C   UNL d   1      44.858  28.220   0.861  0.00  0.00     0.080 A 
ATOM     40  O   UNL d   1      43.056  27.156   2.182  0.00  0.00    -0.453 OA
ENDBRANCH  25  28
ENDBRANCH  21  22
ENDBRANCH  17  21
ENDBRANCH   5   8
TORSDOF 4
ENDMDL
MODEL 7
REMARK VINA RESULT:      -6.8     21.619     24.789
REMARK  4 active torsions:
REMARK  status: ('A' for Active; 'I' for Inactive)
REMARK    1  A    between atoms: C_5  and  C_8 
REMARK    2  A    between atoms: C_16  and  O_17 
REMARK    3  A    between atoms: O_17  and  C_18 
REMARK    4  A    between atoms: C_21  and  C_24 
ROOT
ATOM      1  O   UNL d   1      43.201  12.124  -2.573  0.00  0.00    -0.287 OA
ATOM      2  C   UNL d   1      42.977  13.006  -1.561  0.00  0.00     0.196 A 
ATOM      3  C   UNL d   1      43.674  12.884  -0.363  0.00  0.00     0.042 A 
ATOM      4  C   UNL d   1      43.448  13.786   0.674  0.00  0.00     0.006 A 
ATOM      5  C   UNL d   1      42.515  14.833   0.530  0.00  0.00     0.035 A 
ATOM      6  C   UNL d   1      41.821  14.938  -0.691  0.00  0.00     0.006 A 
ATOM      7  C   UNL d   1      42.052  14.033  -1.723  0.00  0.00     0.042 A 
ENDROOT
BRANCH   5   8
ATOM      8  C   UNL d   1      42.266  15.811   1.649  0.00  0.00     0.149 A 
ATOM      9  C   UNL d   1      43.117  16.182   2.282  0.00  0.00     0.080 A 
ATOM     10  C   UNL d   1      43.023  17.162   3.390  0.00  0.00     0.205 A 
ATOM     11  O   UNL d   1      43.977  17.521   4.050  0.00  0.00    -0.286 OA
ATOM     12  C   UNL d   1      41.633  17.612   3.576  0.00  0.00     0.116 A 
ATOM     13  C   UNL d   1      41.110  18.542   4.555  0.00  0.00     0.205 A 
ATOM     14  C   UNL d   1      40.685  17.032   2.670  0.00  0.00     0.193 A 
ATOM     15  O   UNL d   1      41.928  19.194   5.428  0.00  0.00    -0.286 OA
ATOM     16  C   UNL d   1      39.745  18.802   4.641  0.00  0.00     0.083 A 
ATOM     17  C   UNL d   1      38.828  18.196   3.789  0.00  0.00     0.190 A 
ATOM     18  C   UNL d   1      39.279  17.331   2.787  0.00  0.00     0.264 A 
ATOM     19  O   UNL d   1      38.418  16.772   1.884  0.00  0.00    -0.280 OA
ATOM     20  O   UNL d   1      41.188  16.108   1.762  0.00  0.00    -0.450 OA
BRANCH  17  21
ATOM     21  O   UNL d   1      37.492  18.533   3.923  0.00  0.00    -0.450 OA
BRANCH  21  22
ATOM     22  C   UNL d   1      36.625  17.929   4.814  0.00  0.00     0.145 A 
ATOM     23  C   UNL d   1      36.517  18.371   6.132  0.00  0.00     0.038 A 
ATOM     24  C   UNL d   1      35.622  17.759   7.005  0.00  0.00     0.006 A 
ATOM     25  C   UNL d   1      34.805  16.696   6.574  0.00  0.00     0.035 A 
ATOM     26  C   UNL d   1      34.916  16.277   5.235  0.00  0.00     0.006 A 
ATOM     27  C   UNL d   1      35.813  16.892   4.366  0.00  0.00     0.038 A 
BRANCH  25  28
ATOM     28  C   UNL d   1      33.837  16.029   7.519  0.00  0.00     0.148 A 
ATOM     29  C   UNL d   1      33.420  15.017   7.259  0.00  0.00     0.080 A 
ATOM     30  C   UNL d   1      32.480  14.222   8.086  0.00  0.00     0.205 A 
ATOM     31  O   UNL d   1      32.058  13.131   7.759  0.00  0.00    -0.286 OA
ATOM     32  C   UNL d   1      32.141  14.938   9.327  0.00  0.00     0.113 A 
ATOM     33  C   UNL d   1      31.263  14.522  10.402  0.00  0.00     0.205 A 
ATOM     34  C   UNL d   1      32.773  16.219   9.473  0.00  0.00     0.155 A 
ATOM     35  O   UNL d   1      30.616  13.322  10.372  0.00  0.00    -0.286 OA
ATOM     36  C   UNL d   1      31.048  15.340  11.509  0.00  0.00     0.084 A 
ATOM     37  C   UNL d   1      31.666  16.580  11.628  0.00  0.00     0.202 A 
ATOM     38  O   UNL d   1      31.431  17.353  12.724  0.00  0.00    -0.286 OA
ATOM     39  C   UNL d   1      32.523  17.033  10.633  0.00  0.00     0.080 A 
ATOM     40  O   UNL d   1      33.608  16.628   8.445  0.00  0.00    -0.453 OA
ENDBRANCH  25  28
ENDBRANCH  21  22
ENDBRANCH  17  21
ENDBRANCH   5   8
TORSDOF 4
ENDMDL
MODEL 8
REMARK VINA RESULT:      -6.7      2.097      3.299
REMARK  4 active torsions:
REMARK  status: ('A' for Active; 'I' for Inactive)
REMARK    1  A    between atoms: C_5  and  C_8 
REMARK    2  A    between atoms: C_16  and  O_17 
REMARK    3  A    between atoms: O_17  and  C_18 
REMARK    4  A    between atoms: C_21  and  C_24 
ROOT
ATOM      1  O   UNL d   1      64.993  19.533  -3.402  0.00  0.00    -0.287 OA
ATOM      2  C   UNL d   1      64.282  18.934  -2.407  0.00  0.00     0.196 A 
ATOM      3  C   UNL d   1      64.888  18.657  -1.186  0.00  0.00     0.042 A 
ATOM      4  C   UNL d   1      64.162  18.045  -0.167  0.00  0.00     0.006 A 
ATOM      5  C   UNL d   1      62.808  17.699  -0.352  0.00  0.00     0.035 A 
ATOM      6  C   UNL d   1      62.214  17.988  -1.596  0.00  0.00     0.006 A 
ATOM      7  C   UNL d   1      62.946  18.599  -2.611  0.00  0.00     0.042 A 
ENDROOT
BRANCH   5   8
ATOM      8  C   UNL d   1      62.018  17.037   0.747  0.00  0.00     0.149 A 
ATOM      9  C   UNL d   1      60.912  16.871   0.634  0.00  0.00     0.080 A 
ATOM     10  C   UNL d   1      60.019  16.211   1.615  0.00  0.00     0.205 A 
ATOM     11  O   UNL d   1      58.826  16.066   1.445  0.00  0.00    -0.286 OA
ATOM     12  C   UNL d   1      60.775  15.779   2.804  0.00  0.00     0.116 A 
ATOM     13  C   UNL d   1      60.281  15.119   3.994  0.00  0.00     0.205 A 
ATOM     14  C   UNL d   1      62.178  16.072   2.766  0.00  0.00     0.193 A 
ATOM     15  O   UNL d   1      58.977  14.743   4.113  0.00  0.00    -0.286 OA
ATOM     16  C   UNL d   1      61.127  14.845   5.067  0.00  0.00     0.083 A 
ATOM     17  C   UNL d   1      62.477  15.179   5.039  0.00  0.00     0.190 A 
ATOM     18  C   UNL d   1      63.023  15.768   3.895  0.00  0.00     0.264 A 
ATOM     19  O   UNL d   1      64.358  16.045   3.801  0.00  0.00    -0.280 OA
ATOM     20  O   UNL d   1      62.635  16.745   1.639  0.00  0.00    -0.450 OA
BRANCH  17  21
ATOM     21  O   UNL d   1      63.253  14.844   6.136  0.00  0.00    -0.450 OA
BRANCH  21  22
ATOM     22  C   UNL d   1      63.345  15.610   7.283  0.00  0.00     0.145 A 
ATOM     23  C   UNL d   1      64.125  16.765   7.323  0.00  0.00     0.038 A 
ATOM     24  C   UNL d   1      64.186  17.530   8.484  0.00  0.00     0.006 A 
ATOM     25  C   UNL d   1      63.458  17.160   9.631  0.00  0.00     0.035 A 
ATOM     26  C   UNL d   1      62.662  16.001   9.566  0.00  0.00     0.006 A 
ATOM     27  C   UNL d   1      62.605  15.239   8.401  0.00  0.00     0.038 A 
BRANCH  25  28
ATOM     28  C   UNL d   1      63.525  17.986  10.892  0.00  0.00     0.148 A 
ATOM     29  C   UNL d   1      64.013  18.999  10.862  0.00  0.00     0.080 A 
ATOM     30  C   UNL d   1      64.143  19.939  12.001  0.00  0.00     0.205 A 
ATOM     31  O   UNL d   1      64.680  21.026  11.917  0.00  0.00    -0.286 OA
ATOM     32  C   UNL d   1      63.540  19.371  13.219  0.00  0.00     0.113 A 
ATOM     33  C   UNL d   1      63.453  19.954  14.543  0.00  0.00     0.205 A 
ATOM     34  C   UNL d   1      62.971  18.064  13.053  0.00  0.00     0.155 A 
ATOM     35  O   UNL d   1      63.953  21.193  14.813  0.00  0.00    -0.286 OA
ATOM     36  C   UNL d   1      62.850  19.262  15.591  0.00  0.00     0.084 A 
ATOM     37  C   UNL d   1      62.310  17.994  15.410  0.00  0.00     0.202 A 
ATOM     38  O   UNL d   1      61.730  17.347  16.460  0.00  0.00    -0.286 OA
ATOM     39  C   UNL d   1      62.359  17.383  14.163  0.00  0.00     0.080 A 
ATOM     40  O   UNL d   1      63.058  17.497  11.792  0.00  0.00    -0.453 OA
ENDBRANCH  25  28
ENDBRANCH  21  22
ENDBRANCH  17  21
ENDBRANCH   5   8
TORSDOF 4
ENDMDL
MODEL 9
REMARK VINA RESULT:      -6.7     25.665     27.933
REMARK  4 active torsions:
REMARK  status: ('A' for Active; 'I' for Inactive)
REMARK    1  A    between atoms: C_5  and  C_8 
REMARK    2  A    between atoms: C_16  and  O_17 
REMARK    3  A    between atoms: O_17  and  C_18 
REMARK    4  A    between atoms: C_21  and  C_24 
ROOT
ATOM      1  O   UNL d   1      39.873  26.145   2.606  0.00  0.00    -0.287 OA
ATOM      2  C   UNL d   1      39.527  26.640   3.827  0.00  0.00     0.196 A 
ATOM      3  C   UNL d   1      38.238  26.452   4.315  0.00  0.00     0.042 A 
ATOM      4  C   UNL d   1      37.883  26.957   5.564  0.00  0.00     0.006 A 
ATOM      5  C   UNL d   1      38.816  27.661   6.351  0.00  0.00     0.035 A 
ATOM      6  C   UNL d   1      40.115  27.839   5.837  0.00  0.00     0.006 A 
ATOM      7  C   UNL d   1      40.464  27.333   4.588  0.00  0.00     0.042 A 
ENDROOT
BRANCH   5   8
ATOM      8  C   UNL d   1      38.436  28.209   7.702  0.00  0.00     0.149 A 
ATOM      9  C   UNL d   1      37.894  27.566   8.447  0.00  0.00     0.080 A 
ATOM     10  C   UNL d   1      37.487  27.962   9.816  0.00  0.00     0.205 A 
ATOM     11  O   UNL d   1      36.894  27.226  10.578  0.00  0.00    -0.286 OA
ATOM     12  C   UNL d   1      37.889  29.350  10.102  0.00  0.00     0.116 A 
ATOM     13  C   UNL d   1      37.666  30.123  11.306  0.00  0.00     0.205 A 
ATOM     14  C   UNL d   1      38.575  30.012   9.031  0.00  0.00     0.193 A 
ATOM     15  O   UNL d   1      37.073  29.577  12.405  0.00  0.00    -0.286 OA
ATOM     16  C   UNL d   1      38.048  31.460  11.382  0.00  0.00     0.083 A 
ATOM     17  C   UNL d   1      38.670  32.106  10.319  0.00  0.00     0.190 A 
ATOM     18  C   UNL d   1      38.962  31.397   9.150  0.00  0.00     0.264 A 
ATOM     19  O   UNL d   1      39.635  31.975   8.111  0.00  0.00    -0.280 OA
ATOM     20  O   UNL d   1      38.746  29.277   7.863  0.00  0.00    -0.450 OA
BRANCH  17  21
ATOM     21  O   UNL d   1      39.044  33.429  10.490  0.00  0.00    -0.450 OA
BRANCH  21  22
ATOM     22  C   UNL d   1      39.581  33.939  11.656  0.00  0.00     0.145 A 
ATOM     23  C   UNL d   1      40.838  33.540  12.110  0.00  0.00     0.038 A 
ATOM     24  C   UNL d   1      41.366  34.083  13.278  0.00  0.00     0.006 A 
ATOM     25  C   UNL d   1      40.651  35.048  14.013  0.00  0.00     0.035 A 
ATOM     26  C   UNL d   1      39.393  35.452  13.529  0.00  0.00     0.006 A 
ATOM     27  C   UNL d   1      38.869  34.904  12.360  0.00  0.00     0.038 A 
BRANCH  25  28
ATOM     28  C   UNL d   1      41.221  35.636  15.280  0.00  0.00     0.148 A 
ATOM     29  C   UNL d   1      40.965  35.165  16.270  0.00  0.00     0.080 A 
ATOM     30  C   UNL d   1      41.455  35.606  17.598  0.00  0.00     0.205 A 
ATOM     31  O   UNL d   1      41.148  35.063  18.640  0.00  0.00    -0.286 OA
ATOM     32  C   UNL d   1      42.344  36.772  17.466  0.00  0.00     0.113 A 
ATOM     33  C   UNL d   1      43.031  37.510  18.508  0.00  0.00     0.205 A 
ATOM     34  C   UNL d   1      42.544  37.226  16.119  0.00  0.00     0.155 A 
ATOM     35  O   UNL d   1      42.920  37.163  19.822  0.00  0.00    -0.286 OA
ATOM     36  C   UNL d   1      43.834  38.606  18.199  0.00  0.00     0.084 A 
ATOM     37  C   UNL d   1      44.009  39.032  16.887  0.00  0.00     0.202 A 
ATOM     38  O   UNL d   1      44.800  40.110  16.624  0.00  0.00    -0.286 OA
ATOM     39  C   UNL d   1      43.381  38.364  15.844  0.00  0.00     0.080 A 
ATOM     40  O   UNL d   1      41.884  36.530  15.119  0.00  0.00    -0.453 OA
ENDBRANCH  25  28
ENDBRANCH  21  22
ENDBRANCH  17  21
ENDBRANCH   5   8
TORSDOF 4
ENDMDL
